<?xml version="1.0"?>
<VTKFile type="UnstructuredGrid"  version="0.1"  >
<UnstructuredGrid>
<Piece  NumberOfPoints="10908" NumberOfCells="21160">
<Points>
<DataArray  type="Float64"  NumberOfComponents="3"  format="ascii">-0.09999216720722226 0.001251597859899349 0  -0.09999216720722226 -0.001251597859899324 0  -0.09992951222712528 -0.003754009329879275 0  -0.09980424152647172 -0.006254068541813297 0  -0.09961643359974248 -0.008750208961396265 0  -0.0993662061271743 -0.01124086650983409 0  -0.09905371590102154 -0.01372448054389361 0  -0.09867915872731027 -0.01619949483379979 0  -0.09824276930314649 -0.01866435853836769 0  -0.09774482106965511 -0.02111752717675784 0  -0.09718562604064213 -0.02355746359624618 0  -0.09656553460708706 -0.0259826389354021 0  -0.0958849353175884 -0.02839153358207142 0  -0.09514425463489948 -0.03078263812556374 0  -0.09434395666870733 -0.03315445430244742 0  -0.09348454288482222 -0.03550549593535961 0  -0.09256655179095953 -0.03783428986424361 0  -0.09159055859931162 -0.04013937686942917 0  -0.09055717486612039 -0.04241931258597781 0  -0.08946704810847689 -0.04467266840872038 0  -0.08832086139858776 -0.04689803238741953 0  -0.08711933293576302 -0.04909401011149607 0  -0.08586321559639315 -0.051259225583765 0  -0.08455329646219767 -0.05339232208263388 0  -0.08319039632704039 -0.05549196301222316 0  -0.0817753691826212 -0.05755683273987554 0  -0.08030910168336558 -0.05958563742052986 0  -0.07879251259084807 -0.06157710580744316 0  -0.07722655219809717 -0.06352999004875236 0  -0.07561220173414296 -0.0654430664693768 0  -0.07395047274917997 -0.0673151363377717 0  -0.07224240648073096 -0.06914502661705209 0  -0.0704890732012087 -0.07093159070001633 0  -0.06869157154728435 -0.07267370912760898 0  -0.06685102783148329 -0.07437029029037232 0  -0.06496859533643848 -0.07602027111244807 0  -0.06304545359224527 -0.07762261771769907 0  -0.06108280763736874 -0.07917632607753537 0  -0.05908188726356842 -0.080680422640037 0  -0.05704394624531189 -0.08213396493998064 0  -0.05497026155416092 -0.08353604218938757 0  -0.05286213255862293 -0.08488577584822193 0  -0.05072088020996789 -0.08618232017488325 0  -0.04854784621452173 -0.08742486275614705 0  -0.04634439219295482 -0.08861262501622209 0  -0.0441118988270916 -0.08974486270460519 0  -0.0418517649947774 -0.09082086636242756 0  -0.0395654068933429 -0.09183996176700104 0  -0.03725425715221625 -0.09280151035428542 0  -0.0349197639352395 -0.09370490961901168 0  -0.03256339003325057 -0.09454959349221126 0  -0.03018661194749989 -0.09533503269591435 0  -0.02779091896447685 -0.09606073507479465 0  -0.0253778122227242 -0.09672624590455349 0  -0.02294880377222645 -0.09733114817684957 0  -0.02050541562696112 -0.0978750628605958 0  -0.01804917881120608 -0.09835764913945998 0  -0.01558163240020206 -0.09877860462541965 0  -0.01310432255576947 -0.09913766554823829 0  -0.01061880155748498 -0.09943460692074342 0  -0.008126626830025281 -0.09966924267980326 0  -0.00562935996728636 -0.09984142580291366 0  -0.003128565753890103 -0.09995104840032237 0  -0.0006258111846929931 -0.0999980417826325 0  0.001877335517092352 -0.09998237650384323 0  0.004379305882543121 -0.09990406237980078 0  0.006878532179827535 -0.09976314848204761 0  0.009373448396544122 -0.09955972310707441 0  0.01186249122098281 -0.09929391372099353 0  0.01434410102169454 -0.09896588687966891 0  0.0168167228247549 -0.09857584812435229 0  0.01927880728810846 -0.09812404185289136 0  0.02172881167238507 -0.09761075116659038 0  0.02416520080757896 -0.09703629769281898 0  0.02658644805498359 -0.09640104138348123 0  0.02899103626378299 -0.09570538028946973 0  0.03137745872169579 -0.09494975031124768 0  0.03374422009907978 -0.09413462492571403 0  0.03608983738590409 -0.0932605148895233 0  0.0384128408210011 -0.09232796791904624 0  0.04071177481301732 -0.0913375683471712 0  0.04298519885248568 -0.09028993675716174 0  0.04523168841444655 -0.08918572959380006 0  0.04744983585105387 -0.08802563875205931 0  0.0496382512736056 -0.08681039114356295 0  0.05179556342344641 -0.08554074824110286 0  0.05392042053119698 -0.08421750560150111 0  0.05601149116377094 -0.08284149236711523 0  0.05806746505864942 -0.08141357074629837 0  0.06008705394489031 -0.07993463547314045 0  0.062068992350357 -0.07840561324682899 0  0.06401203839466206 -0.0768274621509803 0  0.06591497456732821 -0.07520117105330526 0  0.0677766084906786 -0.07352775898598621 0  0.06959577366697992 -0.07180827450715208 0  0.07137133020936784 -0.07004379504385366 0  0.07310216555609947 -0.06823542621694852 0  0.07478719516768322 -0.06638430114832015 0  0.07642536320644966 -0.06449157975086556 0  0.07801564319813849 -0.06255844800169477 0  0.07955703867508632 -0.06058611719899883 0  0.08104858380061176 -0.05857582320305206 0  0.08248934397420797 -0.05652882566182319 0  0.0838784164171622 -0.05444640722168118 0  0.08521493073823577 -0.05232987272369083 0  0.08649804947905057 -0.05018054838600033 0  0.08772696863883907 -0.04799978097283517 0  0.0889009181782307 -0.04578893695061648 0  0.09001916250175765 -0.04354940163173486 0  0.09108100091877785 -0.04128257830651554 0  0.09208576808252723 -0.03898988736391795 0  0.0930328344070252 -0.03667276540152144 0  0.09392160646157242 -0.03433266432535521 0  0.09475152734259386 -0.0319710504401355 0  0.09552207702259409 -0.02958940353048034 0  0.09623277267600569 -0.02718921593367883 0  0.09688316898172744 -0.02477199160459344 0  0.0974728584021618 -0.02233924517328454 0  0.09800147143857771 -0.01989250099594415 0  0.09846867686263801 -0.0174332921997361 0  0.09887418192394669 -0.01496315972214073 0  0.09921773253348604 -0.01248365134540491 0  0.09949911342282847 -0.009996320726703157 0  0.09971814827902359 -0.007502726424618317 0  0.09987469985507552 -0.005004430922550236 0  0.09996867005594191 -0.002502999649665144 0  0.1 0 0  0.09996867005594191 0.002502999649665096 0  0.09987469985507554 0.005004430922550164 0  0.09971814827902359 0.007502726424618309 0  0.09949911342282848 0.009996320726703126 0  0.09921773253348604 0.01248365134540486 0  0.09887418192394669 0.01496315972214074 0  0.09846867686263801 0.01743329219973608 0  0.09800147143857772 0.01989250099594411 0  0.0974728584021618 0.02233924517328456 0  0.09688316898172744 0.02477199160459344 0  0.09623277267600572 0.02718921593367872 0  0.0955220770225941 0.0295894035304803 0  0.09475152734259389 0.03197105044013543 0  0.09392160646157242 0.0343326643253552 0  0.09303283440702523 0.0366727654015214 0  0.09208576808252726 0.0389898873639179 0  0.09108100091877785 0.04128257830651555 0  0.09001916250175765 0.04354940163173485 0  0.08890091817823072 0.04578893695061644 0  0.08772696863883905 0.04799978097283519 0  0.08649804947905056 0.05018054838600035 0  0.08521493073823583 0.05232987272369073 0  0.08387841641716223 0.05444640722168113 0  0.082489343974208 0.05652882566182314 0  0.08104858380061178 0.05857582320305206 0  0.07955703867508633 0.06058611719899881 0  0.07801564319813853 0.06255844800169473 0  0.07642536320644966 0.06449157975086556 0  0.07478719516768322 0.06638430114832015 0  0.0731021655560995 0.06823542621694849 0  0.07137133020936781 0.07004379504385369 0  0.0695957736669799 0.07180827450715209 0  0.06777660849067867 0.07352775898598612 0  0.06591497456732824 0.07520117105330523 0  0.06401203839466212 0.07682746215098026 0  0.06206899235035701 0.07840561324682899 0  0.06008705394489031 0.07993463547314045 0  0.05806746505864946 0.08141357074629835 0  0.05601149116377094 0.08284149236711523 0  0.05392042053119699 0.08421750560150111 0  0.05179556342344643 0.08554074824110285 0  0.04963825127360558 0.08681039114356297 0  0.04744983585105388 0.08802563875205929 0  0.04523168841444657 0.08918572959380004 0  0.04298519885248572 0.09028993675716171 0  0.04071177481301738 0.09133756834717116 0  0.0384128408210011 0.09232796791904624 0  0.03608983738590412 0.0932605148895233 0  0.03374422009907983 0.09413462492571401 0  0.03137745872169577 0.09494975031124768 0  0.02899103626378299 0.09570538028946973 0  0.02658644805498361 0.09640104138348121 0  0.02416520080757892 0.09703629769281899 0  0.02172881167238516 0.09761075116659035 0  0.01927880728810846 0.09812404185289136 0  0.01681672282475495 0.09857584812435227 0  0.01434410102169461 0.0989658868796689 0  0.01186249122098281 0.09929391372099353 0  0.009373448396544148 0.09955972310707439 0  0.006878532179827604 0.09976314848204761 0  0.004379305882543101 0.09990406237980078 0  0.001877335517092354 0.09998237650384323 0  -0.0006258111846929686 0.0999980417826325 0  -0.003128565753890144 0.09995104840032237 0  -0.005629359967286269 0.09984142580291366 0  -0.008126626830025279 0.09966924267980326 0  -0.01061880155748493 0.09943460692074342 0  -0.01310432255576943 0.09913766554823829 0  -0.01558163240020205 0.09877860462541965 0  -0.01804917881120606 0.09835764913945998 0  -0.02050541562696107 0.09787506286059582 0  -0.02294880377222647 0.09733114817684957 0  -0.0253778122227242 0.09672624590455349 0  -0.02779091896447682 0.09606073507479465 0  -0.03018661194749985 0.09533503269591437 0  -0.03256339003325048 0.0945495934922113 0  -0.03491976393523949 0.09370490961901168 0  -0.0372542571522162 0.09280151035428545 0  -0.03956540689334286 0.09183996176700107 0  -0.04185176499477741 0.09082086636242755 0  -0.04411189882709158 0.0897448627046052 0  -0.04634439219295476 0.08861262501622214 0  -0.04854784621452175 0.08742486275614705 0  -0.0507208802099679 0.08618232017488325 0  -0.05286213255862291 0.08488577584822195 0  -0.05497026155416086 0.08353604218938761 0  -0.05704394624531183 0.08213396493998068 0  -0.0590818872635684 0.080680422640037 0  -0.06108280763736872 0.07917632607753539 0  -0.06304545359224521 0.07762261771769911 0  -0.06496859533643849 0.07602027111244805 0  -0.06685102783148326 0.07437029029037233 0  -0.06869157154728432 0.072673709127609 0  -0.07048907320120865 0.07093159070001638 0  -0.07224240648073095 0.06914502661705212 0  -0.07395047274917996 0.06731513633777172 0  -0.07561220173414293 0.0654
[...]
<PointData  Scalars="sigma_r [Pa]"> 
<DataArray  type="Float64"  Name="sigma_r [Pa]"  format="ascii">1.2165744595686871e+08  3.6639076500170723e+07  2.2010302608497482e+07  1.2089817845872559e+07  6.5643637169996783e+07  1.3399443790054213e+08  1.0177655989474808e+08  9.1261751627807483e+07  2.4856229696120393e+07  1.6782080877898350e+08  1.9484685049260247e+08  1.4563292240108824e+08  5.0602804124685906e+07  3.4289573519187192e+06  1.0686508836118528e+08  7.6023295184312984e+07  2.4491821197719824e+07  1.1233891806507030e+08  2.0400842759017688e+08  5.1368024829925068e+07  2.1570878678289797e+07  9.9009521530096531e+07  9.6538217473812923e+07  1.5451893227135205e+08  6.2593671536768332e+07  8.6407122168320745e+07  1.0975907039531022e+08  1.5008265696102691e+08  1.5728430787853399e+08  6.0583056186238162e+07  5.1072706967686094e+07  9.6734686316970274e+07  7.9991059254705638e+07  8.8877270430799156e+07  1.8927191767530030e+08  3.8053868567483343e+07  7.1068627178333536e+07  1.5121089838510442e+08  2.6663010077511884e+07  1.1949137931929994e+08  7.9205701631916821e+07  7.7707394641711146e+07  2.1864577315914980e+08  1.8479491285895222e+08  -4.5218849854277130e+06  1.7331096430003038e+08  4.1680613409595549e+07  6.5527489824780218e+07  6.8990230355149209e+07  6.2995831117590681e+07  8.0449383523774460e+07  1.3891976541031998e+08  7.7521040444466040e+07  1.4571986056826514e+08  5.2454351722073808e+07  2.0065996553600368e+08  5.3802156666274637e+07  4.7893281780454725e+07  4.2258662045620464e+07  2.0669379287611336e+08  6.1073704535580494e+07  -7.2520065439350694e+07  3.0007660054786950e+08  3.2110256318639483e+07  1.5107897568303412e+08  6.6903027190304168e+07  2.5618956652572498e+08  1.9290800958814418e+08  1.3203122251610047e+08  1.6042028629822439e+08  3.7641772158103369e+07  7.2923930916887984e+07  9.9845725594438568e+07  3.7140907935469449e+07  1.3978802845118722e+08  1.3214542851146385e+08  7.4203829040661663e+07  1.6578539876739061e+08  8.7731988972637787e+07  1.2561281663218361e+08  2.6780482250236064e+08  8.8209853810997069e+07  1.9436299568152338e+08  2.3541001429610699e+08  3.6872369974822320e+07  2.5230314895390627e+08  8.7005424286796808e+07  9.5630103640821770e+07  1.9746151268086636e+08  1.0064804786875257e+08  5.1565373411115386e+07  1.3527149827697724e+08  6.8450723647177964e+07  2.3559541806939507e+08  1.3651463479510939e+08  8.9535718631537870e+07  1.1926403110758442e+08  6.6936432815221585e+07  1.8185486719853413e+08  1.9494424783692065e+08  1.7342380883070230e+08  1.0172684106555495e+08  1.9112362054640451e+08  4.7217559920761563e+07  7.8802035514663130e+07  7.3647888125835419e+07  3.4594793097501062e+07  1.9107515792751378e+08  4.8016277559612811e+07  9.5834314966154769e+07  7.6024504868552521e+07  1.1765561461605340e+08  6.7862184148461863e+07  2.1715963263098645e+08  2.0712955761135054e+08  4.7431017865391694e+07  1.2000018514875625e+08  2.2376583183119565e+08  1.7033739544171658e+08  1.0724188086022639e+08  6.3427670364099428e+07  9.9599915338227481e+07  5.2965827436838157e+07  9.5262537650482729e+06  1.4006651956050903e+08  1.7674525391246396e+08  1.7470754406797296e+08  1.7302600562990743e+08  1.2496695150752468e+07  1.2832479070249714e+08  6.9090577936537147e+07  1.6848214929042307e+08  2.3541573509842056e+08  1.2707422121271749e+08  8.7908179746066064e+07  1.5795111294898286e+08  1.0138871359727038e+08  6.3553141384641945e+07  5.1759580074056238e+07  5.3521394755889520e+07  1.4037346273316854e+08  3.1426251643940050e+07  8.5778287498641178e+07  7.6723383210394949e+07  -5.8012861477040648e+06  1.4087360795883223e+08  2.2143911112138593e+08  7.6814922138664961e+07  6.3053791127655149e+07  1.1239023613885316e+08  4.1655948322419778e+07  1.7029887611991942e+07  1.1006783436144631e+08  1.8866766906934983e+08  1.6802297084364915e+08  1.3261989886609890e+08  1.4439361571762681e+08  5.0194280391155787e+07  1.9727767780937579e+08  8.5565341496689767e+07  1.0043532521866898e+08  8.0356584347037882e+07  1.4731559606280836e+08  -9.3590999252987765e+06  3.6553422549888320e+07  2.3341343535457379e+08  3.6347449379652813e+07  9.0268149547751173e+07  2.9546646228282833e+08  5.1979679232203640e+07  2.1672542578713930e+08  1.1452227842054290e+08  1.2965363415918040e+08  1.5429561628576530e+07  4.7322657658120476e+07  4.8342770643152371e+07  2.1879107926918158e+08  9.2968430293055296e+07  1.2716457308043033e+08  1.9404936674030718e+08  5.8296890854000136e+07  1.1914820057742634e+08  1.6040215704062322e+08  1.3121791707933639e+08  1.3283188216183260e+08  2.0110889155942610e+08  5.3852248814823054e+07  1.2882618057671070e+08  1.6465717544663933e+08  9.4046307905836940e+07  5.4460885573510364e+07  1.4108264841840062e+08  1.4783823582587078e+08  4.7405090847244732e+07  1.0826512541496141e+08  1.2647546678876767e+08  1.0705426730417098e+08  1.4249228569992226e+08  2.0449768362393811e+08  5.6412459928926140e+07  4.2613913522783786e+07  1.5335620946261665e+08  1.5017108709602696e+08  -2.6640110125695985e+07  1.6021870155453318e+08  1.7182552493143126e+08  2.2599411812219355e+08  1.1810000665956222e+08  2.1592029603285506e+08  2.4817440088603374e+07  2.2566379724270359e+08  1.5143195312531253e+07  3.5073808779596604e+07  3.2578382353952978e+07  -2.1395077251221011e+06  5.9570577841172718e+07  1.3261343716839507e+08  9.7150172461289480e+07  1.9583668420034871e+08  5.0798921792770699e+07  5.7983362046441935e+07  2.2458479246278432e+08  7.3446330992230386e+07  2.0590839294409955e+08  1.0415228701102830e+08  1.1271208975863075e+08  2.2429775662003556e+08  9.6900669563126475e+07  1.8419209190502101e+08  5.9459991518569008e+07  1.3478547119438438e+07  6.2256113145075209e+07  3.2183220880447295e+07  1.2300779416108121e+08  1.3368872598517802e+08  1.2023846312520316e+07  9.8853374955560833e+07  1.3323802563369337e+08  4.1337565765923418e+07  2.9719571021709874e+07  3.8326090214111574e+07  2.0950129469585583e+08  8.1649651709935263e+07  8.8866914863774821e+07  2.0335268943527597e+08  1.5906163031366161e+08  1.3799599078132823e+08  5.0654671644156538e+07  1.4209232791925883e+08  8.0195628172438473e+07  1.3598452505588722e+08  5.7955035418085976e+10  5.9516136724920380e+10  5.9763394915707642e+10  5.8681580026145050e+10  5.8125313144012627e+10  5.8976770779121521e+10  5.8587930413321648e+10  6.0046882700996460e+10  5.7934897546455940e+10  5.9033976161095848e+10  6.1824242418286301e+10  5.8478146873512688e+10  5.9086847383888550e+10  5.9087037787409157e+10  5.9481330178897049e+10  5.8039122650206360e+10  6.0866837998916527e+10  5.9135620664368469e+10  5.8773614374944092e+10  5.9635804781009148e+10  6.1342497782417618e+10  5.8203442147594376e+10  5.7804552601949425e+10  6.0364109207941795e+10  5.7434215477287132e+10  6.1035605693539612e+10  5.8824019428309326e+10  5.7937952627300743e+10  6.0148992609927147e+10  5.9444465534874840e+10  5.7458822638824806e+10  6.0211425652814476e+10  5.7898872719345634e+10  5.9469274180960434e+10  5.8606601376892975e+10  5.8449276040288361e+10  5.7337274231558159e+10  6.0457137127127693e+10  5.9294436088650772e+10  6.0998145799927132e+10  5.8704290306658440e+10  5.9767095256276703e+10  6.0042888077187279e+10  5.8412653003924568e+10  5.7815877803772713e+10  5.8652434337719345e+10  5.9992347318076164e+10  5.8576435709538231e+10  6.0280173351227089e+10  5.8900241549543465e+10  5.8315707340036346e+10  6.1558340578373962e+10  5.9792197561363304e+10  6.0097630708320595e+10  6.0526022489580467e+10  5.9046621451676674e+10  5.9259540567775215e+10  5.9300288611184418e+10  5.8177399968698463e+10  5.9147434987156166e+10  5.7959368536958778e+10  6.0088444880773819e+10  5.9164107776140305e+10  5.8717891929710609e+10  5.9209255452037865e+10  5.8441667974892555e+10  5.8381473476738892e+10  6.0598555592900681e+10  5.8566300017051544e+10  5.9030970594598358e+10  5.8993412808543671e+10  5.8849118934649940e+10  5.8651355678077522e+10  6.0207686221439972e+10  5.9396195279819382e+10  6.0015878769441147e+10  6.0586337568706116e+10  6.2591095218685432e+10  5.8935768194339615e+10  5.8724330713404686e+10  5.9389988272266075e+10  5.8820769513280586e+10  5.9972706233449074e+10  6.0738498284792976e+10  5.9827198304852562e+10  5.8230424983074425e+10  5.9727921081076988e+10  5.7977621115536316e+10  6.0713488182336945e+10  5.8541720302818832e+10  5.8643042178639175e+10  5.8385004813917313e+10  6.0254852143215294e+10  5.9089877503277748e+10  6.0072034392796425e+10  5.8810591723412178e+10  6.0492100836230721e+10  5.9366280828457932e+10  5.9155377448460556e+10  5.8703445082825165e+10  5.9582792971216370e+10  9.1534300154756317e+09  9.3255461913414078e+09  9.2923995438926449e+09  9.1363516309874363e+09  9.1714210865280838e+09  9.4789663352200909e+09  8.8911441352116280e+09  9.1570721744909172e+09  8.9462025477011318e+09  9.3859312680883942e+09  9.3331262987740879e+09  9.4658159392288532e+09  1.3849504822556963e+10  1.6635785526629551e+10  4.4655395273503628e+09  5.4491926092189589e+09  1.8044792630622028e+10  4.3805357807300119e+09  5.0460566769198637e+09  4.7922052121896410e+09  5.0331822832306919e+09  4.8884558238148880e+09  5.1235332645560112e+09  4.9974547537326450e+09  4.8595550689643679e+09  4.9126841448358421e+09  4.8403316264922934e+09  4.5267320046341257e+09  1.8213570261172173e+10  1.7945364421407421e+10  1.6774348650546267e+10  1.8379921586869427e+10  1.7278350873370892e+10  1.6619087821332850e+10  1.7654486492069561e+10  1.6492174251495819e+10  1.5995759251563545e+10  3.6313270492015142e+09  3.4515752638935227e+09  3.3031435871095538e+09  3.1506608082525182e+09  3.4016732930761728e+09  3.2573453539531026e+09  3.1915351001810422e+09  3.2350839158452077e+09  3.4886288408405848e+09  3.1009290167163110e+09  3.2681028261809354e+09  3.4275460166222973e+09  3.1943435332433529e+09  2.2613127737485260e+10  2.2730443541954655e+10  2.3223206791762020e+10  2.3325418053746792e+10  2.4010288793897793e+10  2.3807053378395287e+10  2.1815121996817356e+10  2.3286569153568405e+10  2.3560491734029163e+10  2.2964440393008709e+10  2.3824015005713879e+10  2.2777841625875778e+10  3.6511663755426478e+09  2.9542643938972607e+09  4.1298975412068944e+09  4.2884711760279741e+09  2.9539806515321932e+09  3.0601813610345926e+09  8.1340832371017990e+09  2.6977062301580362e+09  2.8206851716793075e+09  2.7177608987205024e+09  2.4845106685223494e+09  2.8410283636633415e+10  9.6427541764770126e+09  1.0371704455235832e+10  2.6694159216492724e+09  2.3742132361008434e+09  2.1645912012800460e+09  1.0013371793675684e+10  2.2559388427765536e+09  2.8408175323429024e+10  2.1432932964931359e+09  2.1359251727076237e+09  9.5393189689913692e+09  1.9620315026389554e+09  2.1317870685245035e+09  2.0949635238561134e+09  2.0075161624692643e+09  2.0998680402218475e+09  2.1145611042108641e+09  2.1684517568504009e+09  2.9778729790292381e+10  2.0800978251170413e+09  2.2655475571627827e+09  3.0177062818839779e+10  6.4441734278163404e+09  6.8110553286597548e+09  1.9468552859533713e+09  3.1549143536164715e+10  2.7775324345773296e+10  8.7303688909775257e+09  9.5260170932183475e+09  9.7536534329842281e+09  8.9442397276292210e+09  6.1115728150049124e+09  6.7024751977803736e+09  9.4632930427145061e+09  6.7201065163065119e+09  6.9006003626756401e+09  6.6030944095096922e+09  7.2042740082459040e+09  6.6258450168030996e+09  6.6814083399859066e+09  9.2365678996529083e+09  3.0771085290938591e+10  6.3393510067783699e+09  6.3581208701077538e+09  2.0516720147305212e+09  1.4326605507021265e+10  1.3940473731379000e+10  3.0728987442897316e+10  2.4234750919296923e+09  2.4404988515287914e+09  6.0044831306757174e+09  1.6412912620057468e+10  9.4916936892746372e+09  9.9208613816294708e+09  3.1544498624088505e+10  3.1477010984241405e+10  3.1002109254491138e+10  3.1314034565622772e+10  3.1221753192904984e+10  1.9408148810103335e+09  3.1357077081543034e+10  3.1703726503124783e+10  1.7932511602306840e+09  1.9198634747063577e+09  1.7964650207662020e+09  2.2571493016597271e+09  1.2246572825334246e+10  1.4241245722073318e+10  1.4381812550117264e+10  1.4287143406798292e+10  1.2208277493311646e+10  1.4078529368996429e+10  1.4652188020291924e+10  6.9277949081348152e+09  6.0100155059965200e+09  5.6395619215457287e+09  1.4498612005095890e+10  1.6469707845303042e+09  1.2079450272326042e+10  1.4568759893766270e+10  1.5221030969494169e+10  8.9601855583949604e+09  1.2184741098325644e+10  2.0027360562697830e+09  4.9608044463553352e+09  1.4659654719729862e+10  2.5479844055242081e+09  1.4987101615668119e+10  2.8162429566061676e+10  2.8585760303789322e+10  2.8052740567651299e+10  8.7779713640498180e+09  1.6203352747512915e+09  2.5905056861201656e+10  1.5240458360286020e+10  4.8912225174729147e+09  1.8150597160644814e+10  1.4868493633662430e+10  9.9389648088824310e+09  1.5052978876684099e+10  1.4598219971381723e+10  1.7396486114582727e+09  9.4625466611758461e+09  5.9657567052210217e+09  1.7530410361602571e+09  1.6326169959147227e+09  3.3681162194900555e+10  3.3373104538366638e+10  1.5002189620807896e+09  1.7989652448006225e+09  5.8826413202919931e+09  9.9919378629270535e+09  1.7747862306829868e+10  1.1909797725508513e+09  4.9523913373610039e+09  5.9010057956403894e+09  3.2985374514613335e+10  4.2146630337389045e+09  3.5315366653008270e+10  3.4671602759366684e+10  4.5139321317142067e+09  1.5604178861357372e+09  1.7043161044715836e+09  5.4905604327214327e+09  5.4496660066179266e+09  1.5256982686702173e+09  1.3783946094395638e+10  1.4452501632445533e+09  1.6572727457597773e+09  1.7227555105555952e+09  1.4603782279236815e+09  3.6430611495374428e+10  1.5864569937357388e+09  8.4598047470884781e+09  5.0428863047283373e+09  1.2706910139605589e+09  1.4893035695978467e+09  1.3517266224711761e+09  1.5174427983769233e+09  1.5146930432218852e+09  1.4364171919096191e+09  8.8427164625579853e+09  1.4775646483904762e+09  4.0614735614684839e+09  6.3949877891095591e+09  5.3585024827429543e+09  6.2369105704970646e+09  1.9211022625446945e+10  1.5620360093102966e+10  1.5484428416379478e+10  1.3741785184067087e+10  1.3056264765322278e+09  2.1143650475222809e+09  1.4142395118203380e+09  1.4619802288621912e+09  1.4351193855913606e+09  5.7827597256772251e+09  5.6199956044265137e+09  5.6892544068537493e+09  3.8775701802330642e+09  4.5994950401089420e+09  4.0646287276719227e+09  3.6080544142842812e+10  5.6808320398016462e+09  3.7773969759938339e+10  1.2117541113487027e+09  3.3241649480201046e+10  3.6302953320326378e+10  3.6491932636563972e+10  3.6226332987702133e+10  3.7733921081889717e+10  3.6938424469192963e+10  1.9018072121265938e+10  3.5958097137133293e+10  1.4864550867032427e+10  1.4862534082573315e+10  1.8439210324304138e+10  6.2512195675863972e+09  3.9575412447769036e+09  3.6877404440450951e+10  4.1276490005703554e+09  1.0670183206779616e+09  1.2165137311134312e+09  3.5410489536631447e+10  4.4192846220124207e+09  8.8158490287833176e+09  1.0537273270564960e+09  1.0016801858187199e+10  4.4390910253495026e+09  2.2029775183863838e+10  2.2271705924045143e+10  4.1247537857610941e+09  2.0806276401495113e+10  1.4680370463679276e+10  1.4334825119618700e+09  1.1944067346061599e+09  3.8890178208135018e+09  4.2912382780584989e+09  3.8016680352684689e+09  8.0710293957553377e+09  1.1952600680321569e+09  2.1060056458321285e+10  1.5328864320039289e+10  3.2890568648574538e+09  3.1047980712362952e+09  4.1568616233027034e+09  3.3352308282675695e+09  4.2651159058513818e+09  7.1250053727717628e+09  6.1956608588312044e+09  7.0276630929577913e+09  2.5833977136551476e+09  1.1288981688953164e+09  4.4289750415295010e+09  3.8160035921262207e+10  3.8463895636617990e+09  2.1192872123471245e+10  9.8361365024139004e+09  1.5556975794626766e+10  1.2074562348326268e+09  4.2186544679018865e+09  4.0331957628277383e+09  1.3251193333998351e+09  3.5372056863211660e+09  3.3360013385809746e+09  5.7034895040672903e+09  7.2157002905264845e+09  1.4079614354453421e+10  1.2808673501693690e+09  2.1311282923365120e+10  3.5445527940921669e+09  2.0432985413851738e+10  7.3804061097749043e+09  1.8295780756813881e+10  2.1439032284737541e+10  1.2909955826415739e+10  2.4245623078034420e+10  2.5107883599935265e+10  7.2579973916362581e+09  1.1073377713639240e+09  3.7618777591118195e+10  9.6787232542344990e+09  9.6776352611908555e+08  4.0748244919537559e+09  1.2821955595006893e+09  9.1079956331964359e+09  1.2684203332728436e+09  1.0941014687995350e+09  9.8075611398837757e+09  7.5407200208419285e+09  2.1019637348713558e+10  3.9037661328878403e+10  2.9414433042034402e+09  1.1309180149928401e+09  4.0056299836311069e+09  2.4043252244656612e+10  2.6802379262622476e+09  2.5853392219994160e+10  1.1980517756674104e+09  6.3267639770723543e+09  3.9035247970085015e+09  1.2537450206064267e+09  3.6898044944659739e+09  1.1194624496384609e+10  6.4758405031671848e+09  2.1004786434403561e+10  3.3730698533590941e+09  8.5624677630029726e+09  1.5038082981273701e+09  2.0429497423976833e+10  3.6004346994845066e+09  1.0647212440326536e+10  9.6986274810834198e+09  5.2775526134047632e+09  5.0689315524289341e+09  3.1360762514622345e+09  9.6173044900367317e+09  1.1577443156796408e+10  2.6556388879865766e+09  1.2625636371598005e+10  1.9319550387498631e+10  5.2817846653289061e+09  9.6649786107874050e+09  2.5402583711028133e+10  1.4194407939659967e+10  9.9433822975049725e+09  1.0938659520941685e+10  3.1200464098228707e+09  1.0767331280569498e+10  8.1693253918368330e+09  2.4522957744414854e+09  6.0776017894555340e+09  4.1035687378270691e+10  3.9149146347158035e+10  4.0012363447036888e+10  3.0786787964599562e+09  4.0757459247360924e+10  1.3116012418771000e+10  2.8840083755866966e+09  3.8175535456390656e+10  9.0560296128150787e+09  2.6496580289600592e+09  9.9269520703120828e+08  2.6475656813223934e+09  7.4540865802862949e+09  1.0758470605222275e+09  6.2258816048783054e+09  4.0724404989975975e+10  1.8450725907125397e+10  6.6653897855408068e+09  1.0557782560829533e+10  2.0232132097956562e+10  9.7393415471522987e+08  2.0130603943594296e+10  2.6991769961952324e+10  4.0840794622858566e+10  9.9874973381252460e+09  1.1461432864372492e+09  1.5902459075288718e+09  1.0103291675511137e+09  1.1511567945949359e+09  1.2608237930502615e+10  1.2813270476900239e+09  1.1841248053725517e+09  6.6968073063328152e+09  7.2894551695874987e+09  5.2639491351403055e+09  3.3436097708110275e+09  1.3593346087364126e+10  4.0143133322855911e+10  1.1879208508404691e+09  4.0426821842515587e+10  1.0384314741453630e+10  1.7729993941590753e+09  1.0782224629783981e+09  2.6484405041935463e+10  1.4276478100090488e+10  1.2529335790555843e+10  2.5660961097752037e+10  2.7867146025573707e+09  9.8089418495467587e+09  1.4036701979801155e+10  2.7689119257554379e+09  1.1147357211538713e+09  1.8364523733455820e+09  1.4633584713543715e+09  4.0246898440339821e+10  9.0494690052642822e+09  4.1805124188860619e+10  1.7403781194936130e+09  1.3245728527930910e+10  2.2824213690496583e+09  8.4286152535718560e+08  1.1124344350154774e+09  1.0743088129235256e+09  3.6498212919382811e+09  3.7309828305927486e+09  2.0369764755906013e+10  2.1173649812625721e+10  1.3940408923098383e+10  7.1533706215492649e+09  8.8135441657463419e+08  1.0825053429026995e+09  8.2607571065020752e+08  7.4484606398507702e+08  3.9959577332869759e+10  7.5756284218873177e+09  1.3288808018186939e+10  7.9363856867787445e+08  1.0260539729512353e+09  9.0292820583895350e+08  9.7496015135441554e+08  1.3782834792273325e+10  3.8311731730838704e+09  1.5630766658497658e+10  1.0326844994533162e+09  1.0669321049802061e+09  1.1612062947936333e+10  7.5793397311020031e+09  6.6747174610478897e+09  1.0307803857060341e+10  4.1992576882767784e+10  4.1403780476059784e+10  1.6500371968186975e+10  2.5702474650059036e+10  2.8288733983707476e+09  2.4923951720925289e+10  3.0486976771236252e+10  9.3665764126369572e+09  4.1508004922098442e+10  1.3100931642419655e+10  3.2692486087593379e+09  2.4502890586678309e+09  1.3029071523402466e+10  3.2494894891659293e+09  2.2141477240079075e+10  2.8048050592793007e+09  2.5772754007132764e+09  7.0342841888605881e+09  1.2185883243609369e+10  2.1922591996721069e+10  3.4619153813481488e+09  1.6006246381526159e+1