<?xml version="1.0"?>
<VTKFile type="UnstructuredGrid"  version="0.1"  >
<UnstructuredGrid>
<Piece  NumberOfPoints="10908" NumberOfCells="21160">
<Points>
<DataArray  type="Float64"  NumberOfComponents="3"  format="ascii">-0.09999216720722226 0.001251597859899349 0  -0.09999216720722226 -0.001251597859899324 0  -0.09992951222712528 -0.003754009329879275 0  -0.09980424152647172 -0.006254068541813297 0  -0.09961643359974248 -0.008750208961396265 0  -0.0993662061271743 -0.01124086650983409 0  -0.09905371590102154 -0.01372448054389361 0  -0.09867915872731027 -0.01619949483379979 0  -0.09824276930314649 -0.01866435853836769 0  -0.09774482106965511 -0.02111752717675784 0  -0.09718562604064213 -0.02355746359624618 0  -0.09656553460708706 -0.0259826389354021 0  -0.0958849353175884 -0.02839153358207142 0  -0.09514425463489948 -0.03078263812556374 0  -0.09434395666870733 -0.03315445430244742 0  -0.09348454288482222 -0.03550549593535961 0  -0.09256655179095953 -0.03783428986424361 0  -0.09159055859931162 -0.04013937686942917 0  -0.09055717486612039 -0.04241931258597781 0  -0.08946704810847689 -0.04467266840872038 0  -0.08832086139858776 -0.04689803238741953 0  -0.08711933293576302 -0.04909401011149607 0  -0.08586321559639315 -0.051259225583765 0  -0.08455329646219767 -0.05339232208263388 0  -0.08319039632704039 -0.05549196301222316 0  -0.0817753691826212 -0.05755683273987554 0  -0.08030910168336558 -0.05958563742052986 0  -0.07879251259084807 -0.06157710580744316 0  -0.07722655219809717 -0.06352999004875236 0  -0.07561220173414296 -0.0654430664693768 0  -0.07395047274917997 -0.0673151363377717 0  -0.07224240648073096 -0.06914502661705209 0  -0.0704890732012087 -0.07093159070001633 0  -0.06869157154728435 -0.07267370912760898 0  -0.06685102783148329 -0.07437029029037232 0  -0.06496859533643848 -0.07602027111244807 0  -0.06304545359224527 -0.07762261771769907 0  -0.06108280763736874 -0.07917632607753537 0  -0.05908188726356842 -0.080680422640037 0  -0.05704394624531189 -0.08213396493998064 0  -0.05497026155416092 -0.08353604218938757 0  -0.05286213255862293 -0.08488577584822193 0  -0.05072088020996789 -0.08618232017488325 0  -0.04854784621452173 -0.08742486275614705 0  -0.04634439219295482 -0.08861262501622209 0  -0.0441118988270916 -0.08974486270460519 0  -0.0418517649947774 -0.09082086636242756 0  -0.0395654068933429 -0.09183996176700104 0  -0.03725425715221625 -0.09280151035428542 0  -0.0349197639352395 -0.09370490961901168 0  -0.03256339003325057 -0.09454959349221126 0  -0.03018661194749989 -0.09533503269591435 0  -0.02779091896447685 -0.09606073507479465 0  -0.0253778122227242 -0.09672624590455349 0  -0.02294880377222645 -0.09733114817684957 0  -0.02050541562696112 -0.0978750628605958 0  -0.01804917881120608 -0.09835764913945998 0  -0.01558163240020206 -0.09877860462541965 0  -0.01310432255576947 -0.09913766554823829 0  -0.01061880155748498 -0.09943460692074342 0  -0.008126626830025281 -0.09966924267980326 0  -0.00562935996728636 -0.09984142580291366 0  -0.003128565753890103 -0.09995104840032237 0  -0.0006258111846929931 -0.0999980417826325 0  0.001877335517092352 -0.09998237650384323 0  0.004379305882543121 -0.09990406237980078 0  0.006878532179827535 -0.09976314848204761 0  0.009373448396544122 -0.09955972310707441 0  0.01186249122098281 -0.09929391372099353 0  0.01434410102169454 -0.09896588687966891 0  0.0168167228247549 -0.09857584812435229 0  0.01927880728810846 -0.09812404185289136 0  0.02172881167238507 -0.09761075116659038 0  0.02416520080757896 -0.09703629769281898 0  0.02658644805498359 -0.09640104138348123 0  0.02899103626378299 -0.09570538028946973 0  0.03137745872169579 -0.09494975031124768 0  0.03374422009907978 -0.09413462492571403 0  0.03608983738590409 -0.0932605148895233 0  0.0384128408210011 -0.09232796791904624 0  0.04071177481301732 -0.0913375683471712 0  0.04298519885248568 -0.09028993675716174 0  0.04523168841444655 -0.08918572959380006 0  0.04744983585105387 -0.08802563875205931 0  0.0496382512736056 -0.08681039114356295 0  0.05179556342344641 -0.08554074824110286 0  0.05392042053119698 -0.08421750560150111 0  0.05601149116377094 -0.08284149236711523 0  0.05806746505864942 -0.08141357074629837 0  0.06008705394489031 -0.07993463547314045 0  0.062068992350357 -0.07840561324682899 0  0.06401203839466206 -0.0768274621509803 0  0.06591497456732821 -0.07520117105330526 0  0.0677766084906786 -0.07352775898598621 0  0.06959577366697992 -0.07180827450715208 0  0.07137133020936784 -0.07004379504385366 0  0.07310216555609947 -0.06823542621694852 0  0.07478719516768322 -0.06638430114832015 0  0.07642536320644966 -0.06449157975086556 0  0.07801564319813849 -0.06255844800169477 0  0.07955703867508632 -0.06058611719899883 0  0.08104858380061176 -0.05857582320305206 0  0.08248934397420797 -0.05652882566182319 0  0.0838784164171622 -0.05444640722168118 0  0.08521493073823577 -0.05232987272369083 0  0.08649804947905057 -0.05018054838600033 0  0.08772696863883907 -0.04799978097283517 0  0.0889009181782307 -0.04578893695061648 0  0.09001916250175765 -0.04354940163173486 0  0.09108100091877785 -0.04128257830651554 0  0.09208576808252723 -0.03898988736391795 0  0.0930328344070252 -0.03667276540152144 0  0.09392160646157242 -0.03433266432535521 0  0.09475152734259386 -0.0319710504401355 0  0.09552207702259409 -0.02958940353048034 0  0.09623277267600569 -0.02718921593367883 0  0.09688316898172744 -0.02477199160459344 0  0.0974728584021618 -0.02233924517328454 0  0.09800147143857771 -0.01989250099594415 0  0.09846867686263801 -0.0174332921997361 0  0.09887418192394669 -0.01496315972214073 0  0.09921773253348604 -0.01248365134540491 0  0.09949911342282847 -0.009996320726703157 0  0.09971814827902359 -0.007502726424618317 0  0.09987469985507552 -0.005004430922550236 0  0.09996867005594191 -0.002502999649665144 0  0.1 0 0  0.09996867005594191 0.002502999649665096 0  0.09987469985507554 0.005004430922550164 0  0.09971814827902359 0.007502726424618309 0  0.09949911342282848 0.009996320726703126 0  0.09921773253348604 0.01248365134540486 0  0.09887418192394669 0.01496315972214074 0  0.09846867686263801 0.01743329219973608 0  0.09800147143857772 0.01989250099594411 0  0.0974728584021618 0.02233924517328456 0  0.09688316898172744 0.02477199160459344 0  0.09623277267600572 0.02718921593367872 0  0.0955220770225941 0.0295894035304803 0  0.09475152734259389 0.03197105044013543 0  0.09392160646157242 0.0343326643253552 0  0.09303283440702523 0.0366727654015214 0  0.09208576808252726 0.0389898873639179 0  0.09108100091877785 0.04128257830651555 0  0.09001916250175765 0.04354940163173485 0  0.08890091817823072 0.04578893695061644 0  0.08772696863883905 0.04799978097283519 0  0.08649804947905056 0.05018054838600035 0  0.08521493073823583 0.05232987272369073 0  0.08387841641716223 0.05444640722168113 0  0.082489343974208 0.05652882566182314 0  0.08104858380061178 0.05857582320305206 0  0.07955703867508633 0.06058611719899881 0  0.07801564319813853 0.06255844800169473 0  0.07642536320644966 0.06449157975086556 0  0.07478719516768322 0.06638430114832015 0  0.0731021655560995 0.06823542621694849 0  0.07137133020936781 0.07004379504385369 0  0.0695957736669799 0.07180827450715209 0  0.06777660849067867 0.07352775898598612 0  0.06591497456732824 0.07520117105330523 0  0.06401203839466212 0.07682746215098026 0  0.06206899235035701 0.07840561324682899 0  0.06008705394489031 0.07993463547314045 0  0.05806746505864946 0.08141357074629835 0  0.05601149116377094 0.08284149236711523 0  0.05392042053119699 0.08421750560150111 0  0.05179556342344643 0.08554074824110285 0  0.04963825127360558 0.08681039114356297 0  0.04744983585105388 0.08802563875205929 0  0.04523168841444657 0.08918572959380004 0  0.04298519885248572 0.09028993675716171 0  0.04071177481301738 0.09133756834717116 0  0.0384128408210011 0.09232796791904624 0  0.03608983738590412 0.0932605148895233 0  0.03374422009907983 0.09413462492571401 0  0.03137745872169577 0.09494975031124768 0  0.02899103626378299 0.09570538028946973 0  0.02658644805498361 0.09640104138348121 0  0.02416520080757892 0.09703629769281899 0  0.02172881167238516 0.09761075116659035 0  0.01927880728810846 0.09812404185289136 0  0.01681672282475495 0.09857584812435227 0  0.01434410102169461 0.0989658868796689 0  0.01186249122098281 0.09929391372099353 0  0.009373448396544148 0.09955972310707439 0  0.006878532179827604 0.09976314848204761 0  0.004379305882543101 0.09990406237980078 0  0.001877335517092354 0.09998237650384323 0  -0.0006258111846929686 0.0999980417826325 0  -0.003128565753890144 0.09995104840032237 0  -0.005629359967286269 0.09984142580291366 0  -0.008126626830025279 0.09966924267980326 0  -0.01061880155748493 0.09943460692074342 0  -0.01310432255576943 0.09913766554823829 0  -0.01558163240020205 0.09877860462541965 0  -0.01804917881120606 0.09835764913945998 0  -0.02050541562696107 0.09787506286059582 0  -0.02294880377222647 0.09733114817684957 0  -0.0253778122227242 0.09672624590455349 0  -0.02779091896447682 0.09606073507479465 0  -0.03018661194749985 0.09533503269591437 0  -0.03256339003325048 0.0945495934922113 0  -0.03491976393523949 0.09370490961901168 0  -0.0372542571522162 0.09280151035428545 0  -0.03956540689334286 0.09183996176700107 0  -0.04185176499477741 0.09082086636242755 0  -0.04411189882709158 0.0897448627046052 0  -0.04634439219295476 0.08861262501622214 0  -0.04854784621452175 0.08742486275614705 0  -0.0507208802099679 0.08618232017488325 0  -0.05286213255862291 0.08488577584822195 0  -0.05497026155416086 0.08353604218938761 0  -0.05704394624531183 0.08213396493998068 0  -0.0590818872635684 0.080680422640037 0  -0.06108280763736872 0.07917632607753539 0  -0.06304545359224521 0.07762261771769911 0  -0.06496859533643849 0.07602027111244805 0  -0.06685102783148326 0.07437029029037233 0  -0.06869157154728432 0.072673709127609 0  -0.07048907320120865 0.07093159070001638 0  -0.07224240648073095 0.06914502661705212 0  -0.07395047274917996 0.06731513633777172 0  -0.07561220173414293 0.0654
[...]
<PointData  Scalars="sigma_theta [Pa]"> 
<DataArray  type="Float64"  Name="sigma_theta [Pa]"  format="ascii">-1.4921141807342350e+10  -1.4909742447098236e+10  -1.4908836664432135e+10  -1.4916554599211664e+10  -1.4897230989092030e+10  -1.4902500563171770e+10  -1.4934163407116917e+10  -1.4912068745394398e+10  -1.4941477907196896e+10  -1.4909454765603697e+10  -1.4915190121937759e+10  -1.4927040926945591e+10  -1.4870263946387465e+10  -1.4904483535827396e+10  -1.4926315686350327e+10  -1.4913010861966867e+10  -1.4883291020597740e+10  -1.4870015113029703e+10  -1.4882260770239077e+10  -1.4873344686644073e+10  -1.4921663849425610e+10  -1.4923231967608053e+10  -1.4925975532504604e+10  -1.4943614864686485e+10  -1.4910212995932636e+10  -1.4938166590141151e+10  -1.4884337257486357e+10  -1.4942190900109507e+10  -1.4921603478889580e+10  -1.4911225637282681e+10  -1.4910968183797346e+10  -1.4939489924167206e+10  -1.4905453719899006e+10  -1.4915253232193613e+10  -1.4885369904700289e+10  -1.4895237985898775e+10  -1.4901934895802515e+10  -1.4916498462906662e+10  -1.4888890591054276e+10  -1.4898961101843884e+10  -1.4893380909927412e+10  -1.4863364846952991e+10  -1.4866577824804995e+10  -1.4933134121935200e+10  -1.4900365247451664e+10  -1.4898792239265844e+10  -1.4889311361808054e+10  -1.4920346078406115e+10  -1.4916336101960415e+10  -1.4936877494433233e+10  -1.4909714920360504e+10  -1.4919121466601618e+10  -1.4877448816276720e+10  -1.4912462494236139e+10  -1.4880991448340914e+10  -1.4913459462887804e+10  -1.4905036021735518e+10  -1.4905384055096718e+10  -1.4898292445691696e+10  -1.4912387301342751e+10  -1.4892130113393419e+10  -1.4939329904537264e+10  -1.4886184127234589e+10  -1.4888341850165836e+10  -1.4879731234763302e+10  -1.4878033003215933e+10  -1.4928789106662134e+10  -1.4826125819007080e+10  -1.4869989692389332e+10  -1.4916779986857796e+10  -1.4937393451708527e+10  -1.4935272198567915e+10  -1.4925861960990866e+10  -1.4900206723970745e+10  -1.4886011166815910e+10  -1.4900603330663082e+10  -1.4888439489377562e+10  -1.4902884001246511e+10  -1.4873836242711548e+10  -1.4880372553218616e+10  -1.4879578119606133e+10  -1.4824829912663736e+10  -1.4872237412220785e+10  -1.4910594102470675e+10  -1.4905186583862270e+10  -1.4893838296024263e+10  -1.4910918655732487e+10  -1.4907793193152193e+10  -1.4901849247139744e+10  -1.4910996134189461e+10  -1.4877762340740473e+10  -1.4921242036085903e+10  -1.4924375823455479e+10  -1.4893713194823111e+10  -1.4902202092378237e+10  -1.4920904941875689e+10  -1.4929636699112436e+10  -1.4881037679204372e+10  -1.4842329115640303e+10  -1.4915977890311516e+10  -1.4903705650340582e+10  -1.4905788946678289e+10  -1.4885906529585930e+10  -1.4905693675508003e+10  -1.4940903584859022e+10  -1.4922656996051186e+10  -1.4893269170488688e+10  -1.4900530442153034e+10  -1.4902186300136091e+10  -1.4901449061021318e+10  -1.4925136665344780e+10  -1.4933843994488827e+10  -1.4909376280808153e+10  -1.4941300388101080e+10  -1.4904940818237600e+10  -1.4878401653345078e+10  -1.4895610643268585e+10  -1.4898408202101681e+10  -1.4940134311728092e+10  -1.4919602213861752e+10  -1.4920401471830275e+10  -1.4934463552622787e+10  -1.4927406825815746e+10  -1.4915079871447193e+10  -1.4936039253281012e+10  -1.4907730020013287e+10  -1.4865741241071136e+10  -1.4907286706267536e+10  -1.4894336348682768e+10  -1.4892542403791956e+10  -1.4897701466397224e+10  -1.4921409231577990e+10  -1.4886554146586121e+10  -1.4915791282966650e+10  -1.4851713573067698e+10  -1.4909312048728497e+10  -1.4902837677646957e+10  -1.4881987197668938e+10  -1.4917012241790937e+10  -1.4908732236367970e+10  -1.4932897386751093e+10  -1.4926461346160900e+10  -1.4917560705528685e+10  -1.4929203450751122e+10  -1.4897408594717945e+10  -1.4931734934635229e+10  -1.4907499729443064e+10  -1.4930489565200001e+10  -1.4932897807664412e+10  -1.4907696423720608e+10  -1.4918267509871986e+10  -1.4903861126202679e+10  -1.4896420912038965e+10  -1.4949431790666340e+10  -1.4927225190691828e+10  -1.4920791452318073e+10  -1.4909907683165913e+10  -1.4839524088373583e+10  -1.4904621358599361e+10  -1.4852241370946480e+10  -1.4940743880455301e+10  -1.4912636048407469e+10  -1.4913900268160961e+10  -1.4936259620113894e+10  -1.4925157863147465e+10  -1.4922107325515152e+10  -1.4927331195354536e+10  -1.4881472768318325e+10  -1.4919758472550682e+10  -1.4877475118772057e+10  -1.4890219771033272e+10  -1.4924454410116886e+10  -1.4918295838151512e+10  -1.4872437249262690e+10  -1.4919447098311226e+10  -1.4900832280575743e+10  -1.4891045981878778e+10  -1.4897081428956442e+10  -1.4919197692499081e+10  -1.4887502253385090e+10  -1.4889503732990295e+10  -1.4890602373444906e+10  -1.4908146408498672e+10  -1.4921602299897198e+10  -1.4882848597748981e+10  -1.4931355595233438e+10  -1.4914449579358475e+10  -1.4962275342676184e+10  -1.4891330031200314e+10  -1.4923013361524023e+10  -1.4934055532826216e+10  -1.4880480956421196e+10  -1.4921208095506266e+10  -1.4913850426062183e+10  -1.4923242886976559e+10  -1.4876210300930458e+10  -1.4884891439061523e+10  -1.4895716328146585e+10  -1.4902800456305410e+10  -1.4890086066630995e+10  -1.4900832417728565e+10  -1.4934486235817122e+10  -1.4922547522985571e+10  -1.4925260129304953e+10  -1.4928654474262951e+10  -1.4874164299423428e+10  -1.4887795399730278e+10  -1.4913257426356445e+10  -1.4920662381963608e+10  -1.4882467505110577e+10  -1.4891541010510942e+10  -1.4889223581050056e+10  -1.4895960891899414e+10  -1.4942725636954353e+10  -1.4927239095843491e+10  -1.4915367370145155e+10  -1.4903835099693649e+10  -1.4925740670639111e+10  -1.4899140338909071e+10  -1.4903020039365849e+10  -1.4913696458104475e+10  -1.4916781807063387e+10  -1.4881894976844429e+10  -1.4937485618133989e+10  -1.4916393020722795e+10  -1.4882806234765501e+10  -1.4897355102810213e+10  -1.4872036720222082e+10  -1.4877554839445475e+10  -1.4930531750711588e+10  -1.4952974428699230e+10  -1.4908510640845411e+10  -1.4869710040602764e+10  -1.4863422841505047e+10  -1.4933608251781351e+10  -1.4907089695443178e+10  -1.4871799027834724e+10  -1.4888476222492353e+10  -1.4893774447214371e+10  -1.4922638503920437e+10  -1.4917475944894455e+10  -1.4918631059690622e+10  -1.4915288056335880e+10  -1.4931731215782047e+10  -1.4884429023505493e+10  -1.4880884755790321e+10  -1.4887363661174650e+10  -1.4882663852729622e+10  -1.4901295913083858e+10  -1.4899048883935486e+10  -1.4956113699238798e+10  -5.4654335719565025e+10  -5.4096755731320244e+10  -5.4153666403057526e+10  -5.4434310184452560e+10  -5.4488448964420349e+10  -5.4414779255560455e+10  -5.4658553863985367e+10  -5.4187137112282593e+10  -5.4478810196610023e+10  -5.4331409506632805e+10  -5.3530574919913834e+10  -5.4768314625577118e+10  -5.4228423262161423e+10  -5.4332888464318565e+10  -5.4196214731954544e+10  -5.4328190818423508e+10  -5.3928990345199417e+10  -5.4343386396803131e+10  -5.4286103545334740e+10  -5.4182319667042854e+10  -5.3709893435626045e+10  -5.4629944362523903e+10  -5.4423456266971825e+10  -5.4088240888905083e+10  -5.4635781608716644e+10  -5.3732212797556847e+10  -5.4549038882137627e+10  -5.4380023931656044e+10  -5.4024484959260742e+10  -5.4257884046306236e+10  -5.4586097447608513e+10  -5.4113494053618866e+10  -5.4271378738237999e+10  -5.4288654127905090e+10  -5.4374959737404457e+10  -5.4471817105520348e+10  -5.4782241889683830e+10  -5.3956021432829643e+10  -5.4076735958780136e+10  -5.3689057073115158e+10  -5.4161063757601494e+10  -5.4284439375041916e+10  -5.4012081844336884e+10  -5.4443372246624588e+10  -5.4517073322947273e+10  -5.4282414221054604e+10  -5.4323712707157516e+10  -5.4414320382275085e+10  -5.4039719414373474e+10  -5.4455906977230431e+10  -5.4566124139443947e+10  -5.3680152715552849e+10  -5.3936729238177727e+10  -5.4007852360287697e+10  -5.3720292677082008e+10  -5.4334883869258865e+10  -5.4204362879766151e+10  -5.4179260470947769e+10  -5.4424587784176895e+10  -5.4406561181646034e+10  -5.4553643857081238e+10  -5.3898405336657745e+10  -5.4396968143009384e+10  -5.4316168839077354e+10  -5.4259381354570435e+10  -5.4550582694953049e+10  -5.4727729670912270e+10  -5.3957482262668137e+10  -5.4472937236642166e+10  -5.4214863093949501e+10  -5.4301576420716393e+10  -5.4439596962783669e+10  -5.4151785782903542e+10  -5.4186205199983055e+10  -5.4253102652550194e+10  -5.3915314563620171e+10  -5.3760248440660316e+10  -5.3375189941129601e+10  -5.4324075028724007e+10  -5.4329539621129906e+10  -5.4483935979329369e+10  -5.4215687044741524e+10  -5.3906910705504242e+10  -5.3916576065600151e+10  -5.4462575495956963e+10  -5.4113809518871819e+10  -5.4418371506154045e+10  -5.4360897372009644e+10  -5.3867878628432625e+10  -5.4355067040183258e+10  -5.4406494478517929e+10  -5.4527058300012650e+10  -5.4001090079295387e+10  -5.4275754945520370e+10  -5.4099824657310997e+10  -5.4309623625262886e+10  -5.3870435194005180e+10  -5.4247881440043793e+10  -5.4317732379444405e+10  -5.4277265520266136e+10  -5.4140005914777237e+10  -2.2431618523232677e+10  -2.2472391892067242e+10  -2.2409446628378887e+10  -2.2488305842419083e+10  -2.2416964023342754e+10  -2.2418027749020405e+10  -2.2524813375887608e+10  -2.2421566495642097e+10  -2.2440657001033386e+10  -2.2378227880460346e+10  -2.2420993341154751e+10  -2.2406867578416126e+10  -2.5635040843959095e+10  -2.7397496942593479e+10  -1.9038202974637997e+10  -1.9586786787054234e+10  -2.8270726140882294e+10  -1.8826031326387283e+10  -1.9242443974129669e+10  -1.9288850115060509e+10  -1.9223361440720150e+10  -1.9270457749961498e+10  -1.9217995206070347e+10  -1.9156982037311005e+10  -1.9223501516639362e+10  -1.9207676757590752e+10  -1.9164659712184776e+10  -1.8910148337153191e+10  -2.7992029107362358e+10  -2.8204050914536797e+10  -2.7386101882714680e+10  -2.8071134763797302e+10  -2.8309619538747337e+10  -2.7035505294801353e+10  -2.8182677297642891e+10  -2.7260718073245361e+10  -2.7061476879220566e+10  -1.8137334953493484e+10  -1.7899535957969864e+10  -1.7981484961586941e+10  -1.7834843020508625e+10  -1.7829836577081287e+10  -1.7795488561219074e+10  -1.7885398249457756e+10  -1.7871029375149395e+10  -1.7773656010473370e+10  -1.7880691984375320e+10  -1.7851040984982128e+10  -1.7864471163794834e+10  -1.7782184640753609e+10  -3.0678315449284676e+10  -3.0768047399874359e+10  -3.1566637638372013e+10  -3.1461375383685848e+10  -3.1400196812101887e+10  -3.1293213147602299e+10  -3.1675291772291626e+10  -3.1439616632614437e+10  -3.1121838206806377e+10  -3.1591577150614040e+10  -3.1467495910858665e+10  -3.1390623681479996e+10  -1.8239221812179512e+10  -1.7737956977912769e+10  -1.8557189129344795e+10  -1.8547456103440140e+10  -1.7540101514997078e+10  -1.7557142964962658e+10  -2.1636627077012703e+10  -1.7444540467623043e+10  -1.7423334716214600e+10  -1.7356028295218590e+10  -1.7279820549411102e+10  -3.4661871229270782e+10  -2.2759353335827621e+10  -2.2985529977109863e+10  -1.7222747446119564e+10  -1.7068239204673763e+10  -1.6979862464790949e+10  -2.3292473800330746e+10  -1.6907548116001541e+10  -3.4908625021178795e+10  -1.6905741751494265e+10  -1.6919923967526463e+10  -2.2564875747025051e+10  -1.6874019961101217e+10  -1.6790018202516777e+10  -1.6773550463309578e+10  -1.6853457496155376e+10  -1.6884111251073484e+10  -1.6873833987480532e+10  -1.6816102860880230e+10  -3.5803135485955750e+10  -1.6880893159668919e+10  -1.6791438170568705e+10  -3.5699612240404663e+10  -2.0294886103719055e+10  -2.0601428957422497e+10  -1.6775729168147766e+10  -3.5917572191576477e+10  -3.4843698387621162e+10  -2.2323977017995739e+10  -2.2638797741169865e+10  -2.2640777616326908e+10  -2.2401885646845097e+10  -2.0298979473020050e+10  -2.0546227154061737e+10  -2.2706876915966862e+10  -2.0557063240734848e+10  -2.0512216673664719e+10  -2.0548542424771969e+10  -2.1022160341935600e+10  -2.0593157306263489e+10  -2.0346987921339798e+10  -2.2346685499763676e+10  -3.5610657151917885e+10  -2.0299616606647648e+10  -2.0191285372776211e+10  -1.6824552703940908e+10  -2.5873093285660576e+10  -2.5273895441853577e+10  -3.6184651304652809e+10  -1.7058083549537029e+10  -1.7090386736275339e+10  -1.9968529670818554e+10  -2.7426412628086712e+10  -2.2754466399981426e+10  -2.2704428693013657e+10  -3.6527788775075592e+10  -3.6374105476039467e+10  -3.6198093747200134e+10  -3.6360364852963272e+10  -3.6790013711699501e+10  -1.6626761944129091e+10  -3.6442057109296310e+10  -3.5952441198345123e+10  -1.6639821103902266e+10  -1.6624483763069569e+10  -1.6568964309430288e+10  -1.7166657880954786e+10  -2.4596288349046570e+10  -2.5949841622606239e+10  -2.5865852755744118e+10  -2.5966496879949631e+10  -2.4657694434733063e+10  -2.5918898705177101e+10  -2.5928842143743320e+10  -2.0720167770696632e+10  -1.9951707499441959e+10  -1.9777704204052097e+10  -2.5830474653780746e+10  -1.6638122615150736e+10  -2.4143676976651974e+10  -2.6072447292634457e+10  -2.6385588636252064e+10  -2.2352735681789616e+10  -2.4023373845026932e+10  -1.6660960711264923e+10  -1.9297872695792313e+10  -2.5972658239462547e+10  -1.7215782719985493e+10  -2.6040339275668678e+10  -3.4528863063663467e+10  -3.4385773948046112e+10  -3.4500030510959923e+10  -2.2240098455616806e+10  -1.6581304260323065e+10  -3.3697566538350212e+10  -2.6396784857174110e+10  -1.9333887160533398e+10  -2.8131641963336296e+10  -2.6050202045426403e+10  -2.2630894038876587e+10  -2.5858717433887371e+10  -2.5937197886607803e+10  -1.6626908332918568e+10  -2.2724722270943390e+10  -2.0040619218833546e+10  -1.6503465961833412e+10  -1.6475904112487587e+10  -3.7560334533130966e+10  -3.7749316793601822e+10  -1.6410589425855871e+10  -1.6503502288349457e+10  -1.9843475840175926e+10  -2.2899868575001263e+10  -2.8130205129972095e+10  -1.6381995019070978e+10  -1.9270690841514183e+10  -1.9615850896582821e+10  -3.8078115805384415e+10  -1.8776615167370892e+10  -3.7987668279040703e+10  -3.8327191350784752e+10  -1.8860477992458199e+10  -1.6421318956237009e+10  -1.6442055021680996e+10  -1.9455358287318981e+10  -1.9559405423387924e+10  -1.6332030429225058e+10  -2.5327642806658775e+10  -1.6295134456693975e+10  -1.6426200035685850e+10  -1.6406170794773481e+10  -1.6324260505801147e+10  -3.8843544019549095e+10  -1.6285892926828043e+10  -2.1840478641787354e+10  -1.9473089817263527e+10  -1.6335980839038359e+10  -1.6285478581075819e+10  -1.6265068020705656e+10  -1.6239573621186533e+10  -1.6343013827530611e+10  -1.6239357865515596e+10  -2.1814057794503384e+10  -1.6310047037552494e+10  -1.8686638276683285e+10  -2.0335006567298279e+10  -1.9417980089314346e+10  -2.0238130084497482e+10  -2.9141665276813683e+10  -2.6949572914089962e+10  -2.7235318341666294e+10  -2.5529386703729649e+10  -1.6339339123778919e+10  -1.6821921072033028e+10  -1.6249893602229937e+10  -1.6284727120512201e+10  -1.6289496764053221e+10  -1.9731117055381294e+10  -1.9774260785338680e+10  -1.9691563341519230e+10  -1.8467190647352314e+10  -1.9006581339669449e+10  -1.8391900064151165e+10  -3.9136826813256432e+10  -1.9766308061671440e+10  -3.9588636009869209e+10  -1.6224883958834332e+10  -3.8135510603043900e+10  -3.9597972502733131e+10  -3.9917549680846848e+10  -3.9834616158888123e+10  -3.9404961408010345e+10  -3.9556132739271141e+10  -2.9449254664049393e+10  -3.9895406466669434e+10  -2.6085007719594391e+10  -2.6105149777023643e+10  -2.8511236437115623e+10  -2.0194363830235245e+10  -1.8596708385350796e+10  -3.9676513901307251e+10  -1.8525959949229816e+10  -1.6258740163611555e+10  -1.6173756574119646e+10  -3.9313059235724823e+10  -1.8895862287648335e+10  -2.2180513011090210e+10  -1.6177770288888737e+10  -2.2853063422630665e+10  -1.8742128149211430e+10  -3.0645918059564419e+10  -3.0446411083396183e+10  -1.8487099838023506e+10  -3.0359477231219936e+10  -2.5918925744025887e+10  -1.6036136821005857e+10  -1.6226277357335854e+10  -1.8563027131433765e+10  -1.8680027480024151e+10  -1.8624548232615143e+10  -2.1549599757179623e+10  -1.6031637949350845e+10  -3.0257209455556686e+10  -2.6493775691078594e+10  -1.7975254425677902e+10  -1.7752983315291100e+10  -1.8586365290646919e+10  -1.8098404011485344e+10  -1.8705624265619362e+10  -2.1124576937620281e+10  -1.9902077052132172e+10  -2.0576477277793289e+10  -1.7327446759713966e+10  -1.6082214210756306e+10  -1.8798131404316650e+10  -4.0440391832247978e+10  -1.8261914223840576e+10  -3.0315631017284092e+10  -2.2747177662539238e+10  -2.6504629799542736e+10  -1.6091996156014442e+10  -1.8482326826988518e+10  -1.8593124071006172e+10  -1.6194109468918102e+10  -1.8093782769591614e+10  -1.8116030894992439e+10  -1.9709590417700768e+10  -2.0635758286360062e+10  -2.5517567414372047e+10  -1.6017303729084211e+10  -3.0356648357902496e+10  -1.8160347280882313e+10  -3.0271211207559994e+10  -2.1260404221170326e+10  -2.8613557370022160e+10  -3.0484807719875767e+10  -2.4705992732007782e+10  -3.2086888929340565e+10  -3.2894789099229465e+10  -2.0840042409382233e+10  -1.6075696420256775e+10  -4.0594107223686623e+10  -2.2657077928298763e+10  -1.6036941752510479e+10  -1.8293596950692635e+10  -1.5967306909809975e+10  -2.2293305555779804e+10  -1.5997797951386951e+10  -1.6010296145242863e+10  -2.2633460241609978e+10  -2.0936056120135632e+10  -3.0437398628477459e+10  -4.0911173734330460e+10  -1.7523584630137062e+10  -1.6110709240894897e+10  -1.8426117167564838e+10  -3.1308807638634727e+10  -1.7545069662407913e+10  -3.2442180543127079e+10  -1.6075860361182432e+10  -2.0233176490695927e+10  -1.8436463163154491e+10  -1.6073857242226538e+10  -1.8237662638407158e+10  -2.3932263902489796e+10  -2.0528036067545799e+10  -3.0700947392999470e+10  -1.7849945454084881e+10  -2.1941921965547688e+10  -1.6379348460218697e+10  -2.9768926798191761e+10  -1.7981706896413830e+10  -2.3498547614353344e+10  -2.2807343830684765e+10  -1.9064531560357506e+10  -1.9581420571282730e+10  -1.7782306213226471e+10  -2.2729995761331848e+10  -2.3959442717636551e+10  -1.7598527584911186e+10  -2.4635415425589859e+10  -2.9150235981232880e+10  -1.9492678147774052e+10  -2.2933093958516708e+10  -3.2277032235469883e+10  -2.5942654075664715e+10  -2.3079213981917774e+10  -2.3384246781164745e+10  -1.7550348723608788e+10  -2.2900583767034229e+10  -2.1971347832722824e+10  -1.7397544244530499e+10  -1.9910087655130230e+10  -4.1933318658631660e+10  -4.0910984730630302e+10  -4.1298516719032654e+10  -1.7771267161723076e+10  -4.2050238870683205e+10  -2.5190569866874416e+10  -1.7450162573882259e+10  -4.1062655366647942e+10  -2.2164665263617943e+10  -1.7409503484529118e+10  -1.5999984473700718e+10  -1.7436677461902504e+10  -2.1000516651884438e+10  -1.5978839992954441e+10  -2.0115942046773472e+10  -4.1954842727892555e+10  -2.8644216953818958e+10  -2.0425807231433250e+10  -2.3511846977737110e+10  -3.0025251901025284e+10  -1.5896062987674686e+10  -2.9095116670175644e+10  -3.3250896873640797e+10  -4.1994152878373070e+10  -2.3121667841201099e+10  -1.5907182181552843e+10  -1.6436670947235975e+10  -1.5906794811735109e+10  -1.5874605629224283e+10  -2.4603911803596684e+10  -1.5950481535541592e+10  -1.5887315313628122e+10  -2.0416782560767052e+10  -2.1165819142227699e+10  -1.9504418414419540e+10  -1.7915294254780735e+10  -2.5049147619723358e+10  -4.2435755765042862e+10  -1.6133487058658934e+10  -4.1316207815050713e+10  -2.3024108522753536e+10  -1.6477957236187269e+10  -1.5894286540575771e+10  -3.3518971676564285e+10  -2.5540005830888187e+10  -2.4612054413555820e+10  -3.2988013955032879e+10  -1.7537775611681641e+10  -2.2886595504930206e+10  -2.5660699958566181e+10  -1.7415968573823536e+10  -1.5959526014125910e+10  -1.6745597151909481e+10  -1.6194711748532608e+10  -4.1926477770614433e+10  -2.2181425634515053e+10  -4.1827872968010544e+10  -1.6795819469818987e+10  -2.5256241468118130e+10  -1.6964680225779474e+10  -1.5893239996269995e+10  -1.5990094194487337e+10  -1.5838724522045601e+10  -1.8110127975801491e+10  -1.8126248394436787e+10  -2.9991041333116535e+10  -2.9808329332809582e+10  -2.5176819808626019e+10  -2.0660817488724449e+10  -1.5882148226234764e+10  -1.5810040551812508e+10  -1.5931517414382160e+10  -1.5910910632068813e+10  -4.1453995259755653e+10  -2.1093126688251240e+10  -2.4876019276470848e+10  -1.5854813890073320e+10  -1.5910624025694