<?xml version="1.0"?>
<VTKFile type="UnstructuredGrid"  version="0.1"  >
<UnstructuredGrid>
<Piece  NumberOfPoints="10909" NumberOfCells="21162">
<Points>
<DataArray  type="Float64"  NumberOfComponents="3"  format="ascii">-0.09999216720722226 0.001251597859899349 0  -0.09999216720722226 -0.001251597859899324 0  -0.09992951222712528 -0.003754009329879275 0  -0.09980424152647172 -0.006254068541813297 0  -0.09961643359974248 -0.008750208961396265 0  -0.0993662061271743 -0.01124086650983409 0  -0.09905371590102154 -0.01372448054389361 0  -0.09867915872731027 -0.01619949483379979 0  -0.09824276930314649 -0.01866435853836769 0  -0.09774482106965511 -0.02111752717675784 0  -0.09718562604064213 -0.02355746359624618 0  -0.09656553460708706 -0.0259826389354021 0  -0.0958849353175884 -0.02839153358207142 0  -0.09514425463489948 -0.03078263812556374 0  -0.09434395666870733 -0.03315445430244742 0  -0.09348454288482222 -0.03550549593535961 0  -0.09256655179095953 -0.03783428986424361 0  -0.09159055859931162 -0.04013937686942917 0  -0.09055717486612039 -0.04241931258597781 0  -0.08946704810847689 -0.04467266840872038 0  -0.08832086139858776 -0.04689803238741953 0  -0.08711933293576302 -0.04909401011149607 0  -0.08586321559639315 -0.051259225583765 0  -0.08455329646219767 -0.05339232208263388 0  -0.08319039632704039 -0.05549196301222316 0  -0.0817753691826212 -0.05755683273987554 0  -0.08030910168336558 -0.05958563742052986 0  -0.07879251259084807 -0.06157710580744316 0  -0.07722655219809717 -0.06352999004875236 0  -0.07561220173414296 -0.0654430664693768 0  -0.07395047274917997 -0.0673151363377717 0  -0.07224240648073096 -0.06914502661705209 0  -0.0704890732012087 -0.07093159070001633 0  -0.06869157154728435 -0.07267370912760898 0  -0.06685102783148329 -0.07437029029037232 0  -0.06496859533643848 -0.07602027111244807 0  -0.06304545359224527 -0.07762261771769907 0  -0.06108280763736874 -0.07917632607753537 0  -0.05908188726356842 -0.080680422640037 0  -0.05704394624531189 -0.08213396493998064 0  -0.05497026155416092 -0.08353604218938757 0  -0.05286213255862293 -0.08488577584822193 0  -0.05072088020996789 -0.08618232017488325 0  -0.04854784621452173 -0.08742486275614705 0  -0.04634439219295482 -0.08861262501622209 0  -0.0441118988270916 -0.08974486270460519 0  -0.0418517649947774 -0.09082086636242756 0  -0.0395654068933429 -0.09183996176700104 0  -0.03725425715221625 -0.09280151035428542 0  -0.0349197639352395 -0.09370490961901168 0  -0.03256339003325057 -0.09454959349221126 0  -0.03018661194749989 -0.09533503269591435 0  -0.02779091896447685 -0.09606073507479465 0  -0.0253778122227242 -0.09672624590455349 0  -0.02294880377222645 -0.09733114817684957 0  -0.02050541562696112 -0.0978750628605958 0  -0.01804917881120608 -0.09835764913945998 0  -0.01558163240020206 -0.09877860462541965 0  -0.01310432255576947 -0.09913766554823829 0  -0.01061880155748498 -0.09943460692074342 0  -0.008126626830025281 -0.09966924267980326 0  -0.00562935996728636 -0.09984142580291366 0  -0.003128565753890103 -0.09995104840032237 0  -0.0006258111846929931 -0.0999980417826325 0  0.001877335517092352 -0.09998237650384323 0  0.004379305882543121 -0.09990406237980078 0  0.006878532179827535 -0.09976314848204761 0  0.009373448396544122 -0.09955972310707441 0  0.01186249122098281 -0.09929391372099353 0  0.01434410102169454 -0.09896588687966891 0  0.0168167228247549 -0.09857584812435229 0  0.01927880728810846 -0.09812404185289136 0  0.02172881167238507 -0.09761075116659038 0  0.02416520080757896 -0.09703629769281898 0  0.02658644805498359 -0.09640104138348123 0  0.02899103626378299 -0.09570538028946973 0  0.03137745872169579 -0.09494975031124768 0  0.03374422009907978 -0.09413462492571403 0  0.03608983738590409 -0.0932605148895233 0  0.0384128408210011 -0.09232796791904624 0  0.04071177481301732 -0.0913375683471712 0  0.04298519885248568 -0.09028993675716174 0  0.04523168841444655 -0.08918572959380006 0  0.04744983585105387 -0.08802563875205931 0  0.0496382512736056 -0.08681039114356295 0  0.05179556342344641 -0.08554074824110286 0  0.05392042053119698 -0.08421750560150111 0  0.05601149116377094 -0.08284149236711523 0  0.05806746505864942 -0.08141357074629837 0  0.06008705394489031 -0.07993463547314045 0  0.062068992350357 -0.07840561324682899 0  0.06401203839466206 -0.0768274621509803 0  0.06591497456732821 -0.07520117105330526 0  0.0677766084906786 -0.07352775898598621 0  0.06959577366697992 -0.07180827450715208 0  0.07137133020936784 -0.07004379504385366 0  0.07310216555609947 -0.06823542621694852 0  0.07478719516768322 -0.06638430114832015 0  0.07642536320644966 -0.06449157975086556 0  0.07801564319813849 -0.06255844800169477 0  0.07955703867508632 -0.06058611719899883 0  0.08104858380061176 -0.05857582320305206 0  0.08248934397420797 -0.05652882566182319 0  0.0838784164171622 -0.05444640722168118 0  0.08521493073823577 -0.05232987272369083 0  0.08649804947905057 -0.05018054838600033 0  0.08772696863883907 -0.04799978097283517 0  0.0889009181782307 -0.04578893695061648 0  0.09001916250175765 -0.04354940163173486 0  0.09108100091877785 -0.04128257830651554 0  0.09208576808252723 -0.03898988736391795 0  0.0930328344070252 -0.03667276540152144 0  0.09392160646157242 -0.03433266432535521 0  0.09475152734259386 -0.0319710504401355 0  0.09552207702259409 -0.02958940353048034 0  0.09623277267600569 -0.02718921593367883 0  0.09688316898172744 -0.02477199160459344 0  0.0974728584021618 -0.02233924517328454 0  0.09800147143857771 -0.01989250099594415 0  0.09846867686263801 -0.0174332921997361 0  0.09887418192394669 -0.01496315972214073 0  0.09921773253348604 -0.01248365134540491 0  0.09949911342282847 -0.009996320726703157 0  0.09971814827902359 -0.007502726424618317 0  0.09987469985507552 -0.005004430922550236 0  0.09996867005594191 -0.002502999649665144 0  0.1 0 0  0.09996867005594191 0.002502999649665096 0  0.09987469985507554 0.005004430922550164 0  0.09971814827902359 0.007502726424618309 0  0.09949911342282848 0.009996320726703126 0  0.09921773253348604 0.01248365134540486 0  0.09887418192394669 0.01496315972214074 0  0.09846867686263801 0.01743329219973608 0  0.09800147143857772 0.01989250099594411 0  0.0974728584021618 0.02233924517328456 0  0.09688316898172744 0.02477199160459344 0  0.09623277267600572 0.02718921593367872 0  0.0955220770225941 0.0295894035304803 0  0.09475152734259389 0.03197105044013543 0  0.09392160646157242 0.0343326643253552 0  0.09303283440702523 0.0366727654015214 0  0.09208576808252726 0.0389898873639179 0  0.09108100091877785 0.04128257830651555 0  0.09001916250175765 0.04354940163173485 0  0.08890091817823072 0.04578893695061644 0  0.08772696863883905 0.04799978097283519 0  0.08649804947905056 0.05018054838600035 0  0.08521493073823583 0.05232987272369073 0  0.08387841641716223 0.05444640722168113 0  0.082489343974208 0.05652882566182314 0  0.08104858380061178 0.05857582320305206 0  0.07955703867508633 0.06058611719899881 0  0.07801564319813853 0.06255844800169473 0  0.07642536320644966 0.06449157975086556 0  0.07478719516768322 0.06638430114832015 0  0.0731021655560995 0.06823542621694849 0  0.07137133020936781 0.07004379504385369 0  0.0695957736669799 0.07180827450715209 0  0.06777660849067867 0.07352775898598612 0  0.06591497456732824 0.07520117105330523 0  0.06401203839466212 0.07682746215098026 0  0.06206899235035701 0.07840561324682899 0  0.06008705394489031 0.07993463547314045 0  0.05806746505864946 0.08141357074629835 0  0.05601149116377094 0.08284149236711523 0  0.05392042053119699 0.08421750560150111 0  0.05179556342344643 0.08554074824110285 0  0.04963825127360558 0.08681039114356297 0  0.04744983585105388 0.08802563875205929 0  0.04523168841444657 0.08918572959380004 0  0.04298519885248572 0.09028993675716171 0  0.04071177481301738 0.09133756834717116 0  0.0384128408210011 0.09232796791904624 0  0.03608983738590412 0.0932605148895233 0  0.03374422009907983 0.09413462492571401 0  0.03137745872169577 0.09494975031124768 0  0.02899103626378299 0.09570538028946973 0  0.02658644805498361 0.09640104138348121 0  0.02416520080757892 0.09703629769281899 0  0.02172881167238516 0.09761075116659035 0  0.01927880728810846 0.09812404185289136 0  0.01681672282475495 0.09857584812435227 0  0.01434410102169461 0.0989658868796689 0  0.01186249122098281 0.09929391372099353 0  0.009373448396544148 0.09955972310707439 0  0.006878532179827604 0.09976314848204761 0  0.004379305882543101 0.09990406237980078 0  0.001877335517092354 0.09998237650384323 0  -0.0006258111846929686 0.0999980417826325 0  -0.003128565753890144 0.09995104840032237 0  -0.005629359967286269 0.09984142580291366 0  -0.008126626830025279 0.09966924267980326 0  -0.01061880155748493 0.09943460692074342 0  -0.01310432255576943 0.09913766554823829 0  -0.01558163240020205 0.09877860462541965 0  -0.01804917881120606 0.09835764913945998 0  -0.02050541562696107 0.09787506286059582 0  -0.02294880377222647 0.09733114817684957 0  -0.0253778122227242 0.09672624590455349 0  -0.02779091896447682 0.09606073507479465 0  -0.03018661194749985 0.09533503269591437 0  -0.03256339003325048 0.0945495934922113 0  -0.03491976393523949 0.09370490961901168 0  -0.0372542571522162 0.09280151035428545 0  -0.03956540689334286 0.09183996176700107 0  -0.04185176499477741 0.09082086636242755 0  -0.04411189882709158 0.0897448627046052 0  -0.04634439219295476 0.08861262501622214 0  -0.04854784621452175 0.08742486275614705 0  -0.0507208802099679 0.08618232017488325 0  -0.05286213255862291 0.08488577584822195 0  -0.05497026155416086 0.08353604218938761 0  -0.05704394624531183 0.08213396493998068 0  -0.0590818872635684 0.080680422640037 0  -0.06108280763736872 0.07917632607753539 0  -0.06304545359224521 0.07762261771769911 0  -0.06496859533643849 0.07602027111244805 0  -0.06685102783148326 0.07437029029037233 0  -0.06869157154728432 0.072673709127609 0  -0.07048907320120865 0.07093159070001638 0  -0.07224240648073095 0.06914502661705212 0  -0.07395047274917996 0.06731513633777172 0  -0.07561220173414293 0.0654
[...]
<PointData  Scalars="sigma_r [Pa]"> 
<DataArray  type="Float64"  Name="sigma_r [Pa]"  format="ascii">1.2165749021776269e+08  3.6639021505982108e+07  2.2010276787381105e+07  1.2089812277376696e+07  6.5643732437457398e+07  1.3399444787619655e+08  1.0177651904973263e+08  9.1261750724435374e+07  2.4856211574235313e+07  1.6782075509230971e+08  1.9484688056169695e+08  1.4563294937614402e+08  5.0602762301047631e+07  3.4289749532185690e+06  1.0686501790319602e+08  7.6023279350855276e+07  2.4491766317812014e+07  1.1233886421128769e+08  2.0400853993672192e+08  5.1367981098785348e+07  2.1570920974317249e+07  9.9009502116222322e+07  9.6538220705834270e+07  1.5451902970790806e+08  6.2593665087111980e+07  8.6407274191580862e+07  1.0975916352886917e+08  1.5008257025794476e+08  1.5728428544266522e+08  6.0583010092381611e+07  5.1072763573308796e+07  9.6734723382759631e+07  7.9991073716893420e+07  8.8877220683085665e+07  1.8927192343689960e+08  3.8053862165242530e+07  7.1068658077846617e+07  1.5121085685701266e+08  2.6662959479728412e+07  1.1949147262010163e+08  7.9205579244148195e+07  7.7707347301365823e+07  2.1864616867088109e+08  1.8479525263686761e+08  -4.5223841541734161e+06  1.7331083845028093e+08  4.1680586522252187e+07  6.5527631266091950e+07  6.8990233078812689e+07  6.2995852321228363e+07  8.0449291032407805e+07  1.3891974235154316e+08  7.7521021803581879e+07  1.4571980257035017e+08  5.2454348262952983e+07  2.0065968856904319e+08  5.3802051356693529e+07  4.7893222183591537e+07  4.2258698986547910e+07  2.0669368934436011e+08  6.1073673624833114e+07  -7.2520396188717410e+07  3.0007733895592248e+08  3.2110318670937806e+07  1.5107890434408304e+08  6.6902957032087564e+07  2.5618895027292234e+08  1.9290714535608834e+08  1.3203089890835899e+08  1.6041993143063235e+08  3.7641885893098287e+07  7.2923813540729672e+07  9.9845877495660141e+07  3.7141064556483418e+07  1.3978871657420498e+08  1.3214516891484922e+08  7.4203674791247234e+07  1.6578445310615879e+08  8.7731723755906582e+07  1.2561263891190650e+08  2.6780486125372073e+08  8.8209895560090691e+07  1.9436316762246782e+08  2.3540993575710285e+08  3.6872795139807135e+07  2.5230287392171463e+08  8.7005563757512957e+07  9.5631724369244009e+07  1.9746510034497336e+08  1.0064592865836369e+08  5.1572067224892870e+07  1.3526835285058227e+08  6.8450168537547871e+07  2.3560098750748721e+08  1.3651432964812127e+08  8.9535976842470169e+07  1.1926362376272543e+08  6.6937589803406507e+07  1.8185874577440506e+08  1.9494551641542330e+08  1.7342373038131943e+08  1.0172587171536686e+08  1.9112003773373851e+08  4.7216087688187189e+07  7.8802142836779699e+07  7.3648186832384914e+07  3.4595675956087813e+07  1.9108365346943605e+08  4.8017673076687485e+07  9.5835602591863602e+07  7.6024672017653137e+07  1.1764868531306908e+08  6.7945312768024758e+07  2.1703387854747704e+08  2.0709779218783942e+08  4.7422232440755717e+07  1.1994638763015658e+08  2.2429409773652485e+08  1.7056020734144473e+08  1.0715367249305952e+08  6.3376882254034996e+07  9.9785193380100533e+07  5.2840694646097183e+07  9.6344991952849142e+06  1.4012922595986050e+08  1.7689511095117864e+08  1.7512827598503229e+08  1.7299432161586672e+08  1.2498814397602974e+07  1.2826623219176026e+08  6.9074851726501107e+07  1.6852292523499811e+08  2.3544654987191847e+08  1.2702655614092490e+08  8.7899132558035731e+07  1.5792537447985002e+08  1.0138025887874319e+08  6.3564382081873178e+07  5.1771984175109856e+07  5.3526958652812801e+07  1.4037302566627032e+08  3.1426903442997746e+07  8.5777049195479408e+07  7.6723353173257113e+07  -5.8020543295098357e+06  1.4087468150262132e+08  2.2144233428686091e+08  7.6815306055965766e+07  6.3053354567165978e+07  1.1239024102747285e+08  4.1655841979198016e+07  1.7029859010450449e+07  1.1006730961447142e+08  1.8866731722808975e+08  1.6802312761124539e+08  1.3261980502263860e+08  1.4439400305109262e+08  5.0194370261894733e+07  1.9727765404994372e+08  8.5565337827431396e+07  1.0043528261377282e+08  8.0356618584923208e+07  1.4731564076081228e+08  -9.3591069697366059e+06  3.6553446716561869e+07  2.3341335094416761e+08  3.6347424580448650e+07  9.0268372849156395e+07  2.9546652214806449e+08  5.1979615609003030e+07  2.1672569575726223e+08  1.1452233686588262e+08  1.2965350484423599e+08  1.5429538559310123e+07  4.7322640245415598e+07  4.8342815648971803e+07  2.1879123417183498e+08  9.2968617162932605e+07  1.2716469071278015e+08  1.9404931702357587e+08  5.8296857098027125e+07  1.1914815682562809e+08  1.6040221757824710e+08  1.3121784364053510e+08  1.3283179451376459e+08  2.0110906707259724e+08  5.3852292140642911e+07  1.2882615948426761e+08  1.6465732281307659e+08  9.4046256234203085e+07  5.4460949415364422e+07  1.4108261951584086e+08  1.4783808957675633e+08  4.7405187851886943e+07  1.0826497694106933e+08  1.2647538374485514e+08  1.0705442646671103e+08  1.4249238676915550e+08  2.0449788620377630e+08  5.6412473857689746e+07  4.2613872817214750e+07  1.5335630850837028e+08  1.5017100872660175e+08  -2.6640000547543321e+07  1.6021861705364171e+08  1.7182542971937528e+08  2.2599400800288510e+08  1.1810006183796056e+08  2.1592037994047454e+08  2.4817459677520115e+07  2.2566384426389417e+08  1.5143126280867552e+07  3.5073811700402431e+07  3.2578363278079752e+07  -2.1395306888936101e+06  5.9570698780273750e+07  1.3261336983861533e+08  9.7150168544012353e+07  1.9583661122958231e+08  5.0798940697553575e+07  5.7983576215285733e+07  2.2458445975801584e+08  7.3446384529167905e+07  2.0590844581417406e+08  1.0415215448198576e+08  1.1271202387465794e+08  2.2429779468846577e+08  9.6900704062929720e+07  1.8419210570407584e+08  5.9459963248051710e+07  1.3478430278504599e+07  6.2256141911912709e+07  3.2183243016699009e+07  1.2300788888734418e+08  1.3368866826939578e+08  1.2023864836696357e+07  9.8853446764806286e+07  1.3323805859562197e+08  4.1337481119865552e+07  2.9719532201277249e+07  3.8326137099548146e+07  2.0950114011463261e+08  8.1649587548092961e+07  8.8867039344526052e+07  2.0335262015007329e+08  1.5906162064829898e+08  1.3799606935589418e+08  5.0654666294561550e+07  1.4209225198738092e+08  8.0195689250777006e+07  1.3598448468421715e+08  5.7943177176088486e+10  5.9482244893699493e+10  5.9811341744318169e+10  5.8691800644482925e+10  5.8109127174868378e+10  5.8997729338159462e+10  5.8586696671113342e+10  6.0048067479461357e+10  5.7935288695062317e+10  5.9033629694214340e+10  6.1824196738811882e+10  5.8478411458753784e+10  5.9086733883309471e+10  5.9087209228071014e+10  5.9481381837852310e+10  5.8039100369868500e+10  6.0866807805148941e+10  5.9135550265026154e+10  5.8773638460664627e+10  5.9635705114293930e+10  6.1342554810326546e+10  5.8203293080498390e+10  5.7804550276446518e+10  6.0363995704809814e+10  5.7434202416475182e+10  6.1035642657880707e+10  5.8823875240535851e+10  5.7937943585088417e+10  6.0148982747396431e+10  5.9444391862473091e+10  5.7458828878056488e+10  6.0211372569804398e+10  5.7898857402216637e+10  5.9469234873105713e+10  5.8606544126353905e+10  5.8449229157794548e+10  5.7337242715193619e+10  6.0457091477296989e+10  5.9294406028877701e+10  6.0998148788618828e+10  5.8704226870598366e+10  5.9767117450740578e+10  6.0042832196823463e+10  5.8412611704622047e+10  5.7815851127514809e+10  5.8652415718145401e+10  5.9992350192267731e+10  5.8576419104332024e+10  6.0280201567451782e+10  5.8900207883466667e+10  5.8315701243602852e+10  6.1558340240253860e+10  5.9792242129207512e+10  6.0097643737363228e+10  6.0525995135750206e+10  5.9046625018620262e+10  5.9259566364010063e+10  5.9300327636084930e+10  5.8177375308431267e+10  5.9147444024697304e+10  5.7959401217635590e+10  6.0088397511570915e+10  5.9164185741344650e+10  5.8717868621405548e+10  5.9209299657432167e+10  5.8441728661932045e+10  5.8381481569395546e+10  6.0598601605426003e+10  5.8566274058046959e+10  5.9031006036259392e+10  5.8993405168221062e+10  5.8849172613990349e+10  5.8651353714875977e+10  6.0207736644127640e+10  5.9396149657291260e+10  6.0015975763338303e+10  6.0586329696312897e+10  6.2591171857154793e+10  5.8935786730813797e+10  5.8724369708577423e+10  5.9390049291835800e+10  5.8820860909026825e+10  5.9972716104425308e+10  6.0738581774230865e+10  5.9827212110163216e+10  5.8230490570270561e+10  5.9727997731332596e+10  5.7977684068103241e+10  6.0713539863741974e+10  5.8541769758135590e+10  5.8642944230790558e+10  5.8384988389057823e+10  6.0254963350612846e+10  5.9089939317983238e+10  6.0071981031498306e+10  5.8810687437877525e+10  6.0492317362427452e+10  5.9366524455200417e+10  5.9155451000372078e+10  5.8702313673119827e+10  5.9585496701644737e+10  9.1534310246992855e+09  9.3255471627893143e+09  9.2923999989225483e+09  9.1363459948767605e+09  9.1714205650253849e+09  9.4789664010699062e+09  8.8911432930552998e+09  9.1570728860472031e+09  8.9462033681144104e+09  9.3869983574913769e+09  9.3331277112125893e+09  9.4658154120371494e+09  1.3848432406487568e+10  1.6635787629802584e+10  4.4655397628564024e+09  5.4491924413241997e+09  1.8044796803738667e+10  4.3802491353653135e+09  5.0460568091879702e+09  4.7922055915543909e+09  5.0331830855829105e+09  4.8884350414102507e+09  5.1235336748258982e+09  4.9974542293955517e+09  4.8595551879679127e+09  4.9126842577184343e+09  4.8403316904107685e+09  4.5267958122850294e+09  1.8213304812331532e+10  1.7945358577657658e+10  1.6774342601892221e+10  1.8379923775942356e+10  1.7278353755872406e+10  1.6619085951940702e+10  1.7654437395740124e+10  1.6492163557358137e+10  1.5995760217173754e+10  3.6313271366672325e+09  3.4515753309847989e+09  3.3031440508289046e+09  3.1506610988149042e+09  3.4016786928424964e+09  3.2573455219019351e+09  3.1915355910511146e+09  3.2350841513529582e+09  3.4886294802274432e+09  3.1009286887110000e+09  3.2681051032997127e+09  3.4275473437567987e+09  3.1943435505233474e+09  2.2613550376647984e+10  2.2619207428022995e+10  2.3223210182979584e+10  2.3325390668970013e+10  2.4010275931699600e+10  2.3807056579465397e+10  2.1815132056489758e+10  2.3286570762244911e+10  2.3560482090723862e+10  2.2964436299299267e+10  2.3823975548138500e+10  2.2777844287476925e+10  3.6511663873883410e+09  2.9542648108034182e+09  4.1298977701332579e+09  4.2884715038098459e+09  2.9539818056798863e+09  3.0601787537248931e+09  8.1340839962668238e+09  2.6977068067102742e+09  2.8206854483681655e+09  2.7181045321774464e+09  2.4845072003610458e+09  2.8416154469084988e+10  9.6420474706023884e+09  1.0371724287672459e+10  2.6694163290560222e+09  2.3740047408673153e+09  2.1645912247379551e+09  1.0013374298467775e+10  2.2559389832644205e+09  2.8408364997926868e+10  2.1432932988146117e+09  2.1359253939625223e+09  9.5393199779724541e+09  1.9620314626681111e+09  2.1317870253711019e+09  2.0949634612442601e+09  2.0075160973771827e+09  2.0998647071659045e+09  2.1145906397368314e+09  2.1684468023242297e+09  2.9778721824391956e+10  2.0800983470313506e+09  2.2655471868897481e+09  3.0177064957404339e+10  6.4441733349638062e+09  6.8110591403809290e+09  1.9468555855337870e+09  3.1549118200556923e+10  2.7777341006219738e+10  8.7303705769560356e+09  9.5260159533948402e+09  9.7536577453692341e+09  8.9442366836165390e+09  6.1115726958116760e+09  6.7024752425513525e+09  9.4632934767974339e+09  6.7201067234679041e+09  6.9006000787556629e+09  6.6030942770389309e+09  7.2042752104939222e+09  6.6258149567218113e+09  6.6813919324953690e+09  9.2365599578767509e+09  3.0771075838211521e+10  6.3393512629091549e+09  6.3581224879938383e+09  2.0516721260182149e+09  1.4326601708686657e+10  1.3940475156822079e+10  3.0728980540696838e+10  2.4234753033847451e+09  2.4404989196877751e+09  6.0044836369513636e+09  1.6412904587970598e+10  9.4916938015052376e+09  9.9208247155155907e+09  3.1544762782416985e+10  3.1476988272039818e+10  3.1002078045409641e+10  3.1314008175212326e+10  3.1221744293936329e+10  1.9408086453204954e+09  3.1357092671667404e+10  3.1703745059806984e+10  1.7932510987890594e+09  1.9198636762110488e+09  1.7962314365039904e+09  2.2571493367878723e+09  1.2246655644886084e+10  1.4241281471037010e+10  1.4381807451384701e+10  1.4287145253666468e+10  1.2208277536592857e+10  1.4078523963214443e+10  1.4652187679584827e+10  6.9278352788244715e+09  6.0100498540641766e+09  5.6406746801290903e+09  1.4498614733709499e+10  1.6469710045588624e+09  1.2079431195909550e+10  1.4568762575347338e+10  1.5221035190807972e+10  8.9601878338510647e+09  1.2184738454723509e+10  2.0027360994611502e+09  4.9608045243271179e+09  1.4659656333610773e+10  2.5479499497759385e+09  1.4987109715422226e+10  2.8162428250476852e+10  2.8585754933492001e+10  2.8052732223983650e+10  8.7779715147691746e+09  1.6203353632734601e+09  2.5905066968587387e+10  1.5240473362555033e+10  4.8912240733361492e+09  1.8150596352668720e+10  1.4868490086613012e+10  9.9389648020211334e+09  1.5052979004273794e+10  1.4598219823811535e+10  1.7396485254422388e+09  9.4625452999703865e+09  5.9657573321706562e+09  1.7530408419624505e+09  1.6326170275588274e+09  3.3681164943651051e+10  3.3373044108774437e+10  1.5002192597987065e+09  1.7989651093693032e+09  5.8826412124674416e+09  9.9919398348391819e+09  1.7762341985719219e+10  1.1909797240202494e+09  4.9523920061297283e+09  5.9010057076893778e+09  3.2985355917794170e+10  4.2146633732226744e+09  3.5497393857067451e+10  3.4671593808774384e+10  4.5137724894785280e+09  1.5604180688566144e+09  1.7045182172287757e+09  5.4905604761939726e+09  5.4496667596325016e+09  1.5256984643843918e+09  1.3770569047953913e+10  1.4452502735294366e+09  1.6572730298828614e+09  1.7227553598912041e+09  1.4603781014662340e+09  3.6429715836608986e+10  1.5864608058831799e+09  8.4598047933864536e+09  5.0428863329147739e+09  1.2706921969258146e+09  1.4893035636109362e+09  1.3517264368325670e+09  1.5174429353727982e+09  1.5146929295949664e+09  1.4363877418249662e+09  8.8426457423958817e+09  1.4775675760814826e+09  4.0614737607262163e+09  6.3949880472925444e+09  5.3585026990402994e+09  6.2369112041138706e+09  1.9210921639796265e+10  1.5610558163542961e+10  1.5484464336546722e+10  1.3741851400476423e+10  1.3056264505429733e+09  2.1143653606908908e+09  1.4142395778571782e+09  1.4619801435298491e+09  1.4351193435043883e+09  5.7827567968167801e+09  5.6199960730930929e+09  5.6892546192513733e+09  3.8775717213037796e+09  4.5994931930473051e+09  4.0646288762768221e+09  3.6080571255896233e+10  5.6808318552613792e+09  3.7773965178275642e+10  1.2117542058832228e+09  3.3431415919763496e+10  3.6302930975866264e+10  3.6491942219363869e+10  3.6226536135304352e+10  3.7733955225697769e+10  3.6938425700307915e+10  1.9018070333449043e+10  3.5958086867663986e+10  1.4864559398323666e+10  1.4862543561218460e+10  1.8439210749444145e+10  6.2512200339861813e+09  3.9575489563143792e+09  3.6877244579320351e+10  4.1276892455613008e+09  1.0670113111960132e+09  1.2165134572086923e+09  3.5410492408119041e+10  4.4192850260797110e+09  8.8158487786968937e+09  1.0536959723732712e+09  1.0016804689537645e+10  4.4390922163706512e+09  2.2029728971717720e+10  2.2271706330530640e+10  4.1247538613167419e+09  2.0806273322757782e+10  1.4680371355002754e+10  1.4334826734978278e+09  1.1944068674612958e+09  3.8890178645131655e+09  4.2912386526989231e+09  3.8016683213882213e+09  8.0710312514296818e+09  1.1952602549735160e+09  2.1060101085591148e+10  1.5328864531041071e+10  3.2890572342006822e+09  3.1047984858545055e+09  4.1568617304316344e+09  3.3352315101893783e+09  4.2651151835022941e+09  7.1250057475261650e+09  6.1956605079379673e+09  7.0276637332428312e+09  2.5833771566396151e+09  1.1289665962872236e+09  4.4290873374120140e+09  3.8160030516474182e+10  3.8463893816221275e+09  2.1192854775569679e+10  9.8361388216508389e+09  1.5556973915129375e+10  1.2074577631483617e+09  4.2186540137071214e+09  4.0334247595526061e+09  1.3250790901118364e+09  3.5372057527443528e+09  3.3360014365322194e+09  5.7034897365170698e+09  7.2157013186410856e+09  1.4079615179323900e+10  1.2808675515717504e+09  2.1311282658031406e+10  3.5451353338608227e+09  2.0432980686029625e+10  7.3804057851004038e+09  1.8295557318062733e+10  2.1439023714309471e+10  1.2909958743254955e+10  2.4245584607900505e+10  2.5107759762673264e+10  7.2585221036199903e+09  1.1073362546485698e+09  3.7620963401043205e+10  9.6787227891286259e+09  9.6777960761468077e+08  4.0748388597252002e+09  1.2821967146222825e+09  9.1079966495646553e+09  1.2684204561018019e+09  1.0941017382225845e+09  9.8075602664890480e+09  7.5406799132319775e+09  2.1019641912857815e+10  3.9037695189929626e+10  2.9414436587101874e+09  1.1309183549138074e+09  4.0056302798849921e+09  2.4037436724905514e+10  2.6803283448846326e+09  2.5853403660802269e+10  1.1980518378904276e+09  6.3267641206585798e+09  3.9035250243727403e+09  1.2537450919953303e+09  3.6898047279669337e+09  1.1194626361720329e+10  6.4758407866681232e+09  2.1004784963063560e+10  3.3730694634666791e+09  8.5624679443013163e+09  1.5038078367990630e+09  2.0429496224277443e+10  3.6004354901378899e+09  1.0647212941137955e+10  9.6986279582755852e+09  5.2770097566297731e+09  5.0688635859123812e+09  3.1360763225096221e+09  9.6173067001385422e+09  1.1577456261976355e+10  2.6556387521257005e+09  1.2625639608467474e+10  1.9319423891867393e+10  5.2817848749291258e+09  9.6646842763461571e+09  2.5402590075157505e+10  1.4194410502182631e+10  9.9433780445709209e+09  1.0939034118874399e+10  3.1200465372273579e+09  1.0767329843944979e+10  8.1699095678266611e+09  2.4522968351466255e+09  6.0776018901161127e+09  4.1035669121607361e+10  3.9149217952950989e+10  4.0012343267844719e+10  3.0786789708037624e+09  4.0757460090150162e+10  1.3116011110072247e+10  2.8840080562612624e+09  3.8175925708755836e+10  9.0560639315313263e+09  2.6496578437852640e+09  9.9264920902356231e+08  2.6475657992166462e+09  7.4540860211744518e+09  1.0758469748013256e+09  6.2258746183203745e+09  4.0722052716180290e+10  1.8450726571067680e+10  6.6653903708801975e+09  1.0557785189798817e+10  2.0232132583700275e+10  9.7393415037073040e+08  2.0125963027023827e+10  2.6992801877453384e+10  4.0871771901705986e+10  9.9875007341266842e+09  1.1461430648362947e+09  1.5902456662475426e+09  1.0103293652213172e+09  1.1511564262333074e+09  1.2608231633592129e+10  1.2813269059679520e+09  1.1841248002184796e+09  6.6968079404734354e+09  7.2894552950381575e+09  5.2639497406471701e+09  3.3436098029648614e+09  1.3593345558288387e+10  4.0143131597292030e+10  1.1879208882171233e+09  4.0426785824873154e+10  1.0384317187467731e+10  1.7729993374330566e+09  1.0782222042409573e+09  2.6484421281282631e+10  1.4276471648884075e+10  1.2529333097924162e+10  2.5661187688787647e+10  2.7867148533910766e+09  9.8089409955703506e+09  1.4036701202282955e+10  2.7689123186390600e+09  1.1147360605129669e+09  1.8364525740283198e+09  1.4633659394405067e+09  4.0246531164958252e+10  9.0494671290511932e+09  4.1805128106817322e+10  1.7403777448402145e+09  1.3245730594343721e+10  2.2824214077799654e+09  8.4286129775313175e+08  1.1124344130039487e+09  1.0743089738991389e+09  3.6498218758312445e+09  3.7309835180304041e+09  2.0369766305392551e+10  2.1173650184664474e+10  1.3940408107719927e+10  7.1533837420671005e+09  8.8135471269479644e+08  1.0825053287548618e+09  8.2607644570255065e+08  7.4484996877315056e+08  3.9959548093563286e+10  7.5756307600739880e+09  1.3288810656877430e+10  7.9364248248695660e+08  1.0260556190952226e+09  9.0292826510010076e+08  9.7496009919781971e+08  1.3782847227039333e+10  3.8311731918415213e+09  1.5630764382706434e+10  1.0326846806264734e+09  1.0669322985952903e+09  1.1612064057221701e+10  7.5793391987307730e+09  6.6747176836827049e+09  1.0307803301978674e+10  4.1992588546590004e+10  4.1403681598269318e+10  1.6500363560068907e+10  2.5702465209431435e+10  2.8288728858476467e+09  2.4365374110015999e+10  3.0487022746485111e+10  9.3666891357724018e+09  4.1508014423118912e+10  1.3100934457969763e+10  3.2692488973015862e+09  2.4502791610199518e+09  1.3029077807743416e+10  3.2494897576285038e+09  2.2141473681533859e+10  2.8048072937867923e+09  2.5772895834767995e+09  7.0342845503243427e+09  1.2185885991597643e+10  2.1922604230488953e+10  3.4619155530106435e+09  1.6006261427694857e+1