<?xml version="1.0"?>
<VTKFile type="UnstructuredGrid"  version="0.1"  >
<UnstructuredGrid>
<Piece  NumberOfPoints="10908" NumberOfCells="21160">
<Points>
<DataArray  type="Float64"  NumberOfComponents="3"  format="ascii">-0.09999216720722226 0.001251597859899349 0  -0.09999216720722226 -0.001251597859899324 0  -0.09992951222712528 -0.003754009329879275 0  -0.09980424152647172 -0.006254068541813297 0  -0.09961643359974248 -0.008750208961396265 0  -0.0993662061271743 -0.01124086650983409 0  -0.09905371590102154 -0.01372448054389361 0  -0.09867915872731027 -0.01619949483379979 0  -0.09824276930314649 -0.01866435853836769 0  -0.09774482106965511 -0.02111752717675784 0  -0.09718562604064213 -0.02355746359624618 0  -0.09656553460708706 -0.0259826389354021 0  -0.0958849353175884 -0.02839153358207142 0  -0.09514425463489948 -0.03078263812556374 0  -0.09434395666870733 -0.03315445430244742 0  -0.09348454288482222 -0.03550549593535961 0  -0.09256655179095953 -0.03783428986424361 0  -0.09159055859931162 -0.04013937686942917 0  -0.09055717486612039 -0.04241931258597781 0  -0.08946704810847689 -0.04467266840872038 0  -0.08832086139858776 -0.04689803238741953 0  -0.08711933293576302 -0.04909401011149607 0  -0.08586321559639315 -0.051259225583765 0  -0.08455329646219767 -0.05339232208263388 0  -0.08319039632704039 -0.05549196301222316 0  -0.0817753691826212 -0.05755683273987554 0  -0.08030910168336558 -0.05958563742052986 0  -0.07879251259084807 -0.06157710580744316 0  -0.07722655219809717 -0.06352999004875236 0  -0.07561220173414296 -0.0654430664693768 0  -0.07395047274917997 -0.0673151363377717 0  -0.07224240648073096 -0.06914502661705209 0  -0.0704890732012087 -0.07093159070001633 0  -0.06869157154728435 -0.07267370912760898 0  -0.06685102783148329 -0.07437029029037232 0  -0.06496859533643848 -0.07602027111244807 0  -0.06304545359224527 -0.07762261771769907 0  -0.06108280763736874 -0.07917632607753537 0  -0.05908188726356842 -0.080680422640037 0  -0.05704394624531189 -0.08213396493998064 0  -0.05497026155416092 -0.08353604218938757 0  -0.05286213255862293 -0.08488577584822193 0  -0.05072088020996789 -0.08618232017488325 0  -0.04854784621452173 -0.08742486275614705 0  -0.04634439219295482 -0.08861262501622209 0  -0.0441118988270916 -0.08974486270460519 0  -0.0418517649947774 -0.09082086636242756 0  -0.0395654068933429 -0.09183996176700104 0  -0.03725425715221625 -0.09280151035428542 0  -0.0349197639352395 -0.09370490961901168 0  -0.03256339003325057 -0.09454959349221126 0  -0.03018661194749989 -0.09533503269591435 0  -0.02779091896447685 -0.09606073507479465 0  -0.0253778122227242 -0.09672624590455349 0  -0.02294880377222645 -0.09733114817684957 0  -0.02050541562696112 -0.0978750628605958 0  -0.01804917881120608 -0.09835764913945998 0  -0.01558163240020206 -0.09877860462541965 0  -0.01310432255576947 -0.09913766554823829 0  -0.01061880155748498 -0.09943460692074342 0  -0.008126626830025281 -0.09966924267980326 0  -0.00562935996728636 -0.09984142580291366 0  -0.003128565753890103 -0.09995104840032237 0  -0.0006258111846929931 -0.0999980417826325 0  0.001877335517092352 -0.09998237650384323 0  0.004379305882543121 -0.09990406237980078 0  0.006878532179827535 -0.09976314848204761 0  0.009373448396544122 -0.09955972310707441 0  0.01186249122098281 -0.09929391372099353 0  0.01434410102169454 -0.09896588687966891 0  0.0168167228247549 -0.09857584812435229 0  0.01927880728810846 -0.09812404185289136 0  0.02172881167238507 -0.09761075116659038 0  0.02416520080757896 -0.09703629769281898 0  0.02658644805498359 -0.09640104138348123 0  0.02899103626378299 -0.09570538028946973 0  0.03137745872169579 -0.09494975031124768 0  0.03374422009907978 -0.09413462492571403 0  0.03608983738590409 -0.0932605148895233 0  0.0384128408210011 -0.09232796791904624 0  0.04071177481301732 -0.0913375683471712 0  0.04298519885248568 -0.09028993675716174 0  0.04523168841444655 -0.08918572959380006 0  0.04744983585105387 -0.08802563875205931 0  0.0496382512736056 -0.08681039114356295 0  0.05179556342344641 -0.08554074824110286 0  0.05392042053119698 -0.08421750560150111 0  0.05601149116377094 -0.08284149236711523 0  0.05806746505864942 -0.08141357074629837 0  0.06008705394489031 -0.07993463547314045 0  0.062068992350357 -0.07840561324682899 0  0.06401203839466206 -0.0768274621509803 0  0.06591497456732821 -0.07520117105330526 0  0.0677766084906786 -0.07352775898598621 0  0.06959577366697992 -0.07180827450715208 0  0.07137133020936784 -0.07004379504385366 0  0.07310216555609947 -0.06823542621694852 0  0.07478719516768322 -0.06638430114832015 0  0.07642536320644966 -0.06449157975086556 0  0.07801564319813849 -0.06255844800169477 0  0.07955703867508632 -0.06058611719899883 0  0.08104858380061176 -0.05857582320305206 0  0.08248934397420797 -0.05652882566182319 0  0.0838784164171622 -0.05444640722168118 0  0.08521493073823577 -0.05232987272369083 0  0.08649804947905057 -0.05018054838600033 0  0.08772696863883907 -0.04799978097283517 0  0.0889009181782307 -0.04578893695061648 0  0.09001916250175765 -0.04354940163173486 0  0.09108100091877785 -0.04128257830651554 0  0.09208576808252723 -0.03898988736391795 0  0.0930328344070252 -0.03667276540152144 0  0.09392160646157242 -0.03433266432535521 0  0.09475152734259386 -0.0319710504401355 0  0.09552207702259409 -0.02958940353048034 0  0.09623277267600569 -0.02718921593367883 0  0.09688316898172744 -0.02477199160459344 0  0.0974728584021618 -0.02233924517328454 0  0.09800147143857771 -0.01989250099594415 0  0.09846867686263801 -0.0174332921997361 0  0.09887418192394669 -0.01496315972214073 0  0.09921773253348604 -0.01248365134540491 0  0.09949911342282847 -0.009996320726703157 0  0.09971814827902359 -0.007502726424618317 0  0.09987469985507552 -0.005004430922550236 0  0.09996867005594191 -0.002502999649665144 0  0.1 0 0  0.09996867005594191 0.002502999649665096 0  0.09987469985507554 0.005004430922550164 0  0.09971814827902359 0.007502726424618309 0  0.09949911342282848 0.009996320726703126 0  0.09921773253348604 0.01248365134540486 0  0.09887418192394669 0.01496315972214074 0  0.09846867686263801 0.01743329219973608 0  0.09800147143857772 0.01989250099594411 0  0.0974728584021618 0.02233924517328456 0  0.09688316898172744 0.02477199160459344 0  0.09623277267600572 0.02718921593367872 0  0.0955220770225941 0.0295894035304803 0  0.09475152734259389 0.03197105044013543 0  0.09392160646157242 0.0343326643253552 0  0.09303283440702523 0.0366727654015214 0  0.09208576808252726 0.0389898873639179 0  0.09108100091877785 0.04128257830651555 0  0.09001916250175765 0.04354940163173485 0  0.08890091817823072 0.04578893695061644 0  0.08772696863883905 0.04799978097283519 0  0.08649804947905056 0.05018054838600035 0  0.08521493073823583 0.05232987272369073 0  0.08387841641716223 0.05444640722168113 0  0.082489343974208 0.05652882566182314 0  0.08104858380061178 0.05857582320305206 0  0.07955703867508633 0.06058611719899881 0  0.07801564319813853 0.06255844800169473 0  0.07642536320644966 0.06449157975086556 0  0.07478719516768322 0.06638430114832015 0  0.0731021655560995 0.06823542621694849 0  0.07137133020936781 0.07004379504385369 0  0.0695957736669799 0.07180827450715209 0  0.06777660849067867 0.07352775898598612 0  0.06591497456732824 0.07520117105330523 0  0.06401203839466212 0.07682746215098026 0  0.06206899235035701 0.07840561324682899 0  0.06008705394489031 0.07993463547314045 0  0.05806746505864946 0.08141357074629835 0  0.05601149116377094 0.08284149236711523 0  0.05392042053119699 0.08421750560150111 0  0.05179556342344643 0.08554074824110285 0  0.04963825127360558 0.08681039114356297 0  0.04744983585105388 0.08802563875205929 0  0.04523168841444657 0.08918572959380004 0  0.04298519885248572 0.09028993675716171 0  0.04071177481301738 0.09133756834717116 0  0.0384128408210011 0.09232796791904624 0  0.03608983738590412 0.0932605148895233 0  0.03374422009907983 0.09413462492571401 0  0.03137745872169577 0.09494975031124768 0  0.02899103626378299 0.09570538028946973 0  0.02658644805498361 0.09640104138348121 0  0.02416520080757892 0.09703629769281899 0  0.02172881167238516 0.09761075116659035 0  0.01927880728810846 0.09812404185289136 0  0.01681672282475495 0.09857584812435227 0  0.01434410102169461 0.0989658868796689 0  0.01186249122098281 0.09929391372099353 0  0.009373448396544148 0.09955972310707439 0  0.006878532179827604 0.09976314848204761 0  0.004379305882543101 0.09990406237980078 0  0.001877335517092354 0.09998237650384323 0  -0.0006258111846929686 0.0999980417826325 0  -0.003128565753890144 0.09995104840032237 0  -0.005629359967286269 0.09984142580291366 0  -0.008126626830025279 0.09966924267980326 0  -0.01061880155748493 0.09943460692074342 0  -0.01310432255576943 0.09913766554823829 0  -0.01558163240020205 0.09877860462541965 0  -0.01804917881120606 0.09835764913945998 0  -0.02050541562696107 0.09787506286059582 0  -0.02294880377222647 0.09733114817684957 0  -0.0253778122227242 0.09672624590455349 0  -0.02779091896447682 0.09606073507479465 0  -0.03018661194749985 0.09533503269591437 0  -0.03256339003325048 0.0945495934922113 0  -0.03491976393523949 0.09370490961901168 0  -0.0372542571522162 0.09280151035428545 0  -0.03956540689334286 0.09183996176700107 0  -0.04185176499477741 0.09082086636242755 0  -0.04411189882709158 0.0897448627046052 0  -0.04634439219295476 0.08861262501622214 0  -0.04854784621452175 0.08742486275614705 0  -0.0507208802099679 0.08618232017488325 0  -0.05286213255862291 0.08488577584822195 0  -0.05497026155416086 0.08353604218938761 0  -0.05704394624531183 0.08213396493998068 0  -0.0590818872635684 0.080680422640037 0  -0.06108280763736872 0.07917632607753539 0  -0.06304545359224521 0.07762261771769911 0  -0.06496859533643849 0.07602027111244805 0  -0.06685102783148326 0.07437029029037233 0  -0.06869157154728432 0.072673709127609 0  -0.07048907320120865 0.07093159070001638 0  -0.07224240648073095 0.06914502661705212 0  -0.07395047274917996 0.06731513633777172 0  -0.07561220173414293 0.0654
[...]
<PointData  Scalars="tau_rtheta [Pa]"> 
<DataArray  type="Float64"  Name="tau_rtheta [Pa]"  format="ascii">6.4717500144219758e-03  9.6888194024091368e-03  6.3435564781511705e-04  -7.0057837809708668e-03  -2.0263991415629005e-02  2.5323658121061365e-02  7.7070030701044644e-03  6.0554282163284752e-04  1.0657398739337534e-02  6.9635197079571153e-03  -7.8594996042033599e-03  -1.7800473653357763e-03  1.8542217466518943e-03  -4.2260537806987544e-03  -5.1575464406092026e-03  -8.8619560208709411e-03  1.6667827857625554e-03  1.4215451877559548e-02  -5.3250957524783258e-05  3.4692288647865462e-03  -4.3311063249774056e-03  -1.3443487366527096e-02  1.8295819353679823e-02  4.0341834527520058e-04  9.8307353463452044e-03  1.1413401409801930e-03  2.9593772782295054e-03  3.6023755561277104e-03  2.4338826343504078e-03  5.9312778913895156e-03  -8.8902012517039445e-03  -1.1711346077103462e-02  -1.6597555860263711e-02  2.5135490786140996e-02  7.2513615490188013e-03  -1.2827178853679329e-03  -2.5973555926126998e-03  -1.7553249778884726e-03  8.1662991931132408e-03  -2.2389687682425460e-03  9.9201028616744090e-03  1.2473290578024537e-03  -9.8988404875555332e-03  -5.7573507961825483e-03  2.8655321290108489e-03  3.5052071185640477e-03  -1.2119654751586615e-02  1.2628126842355368e-02  -3.0098933459962668e-03  7.4563987818074585e-03  -2.5927313629356612e-03  1.0014980699762348e-02  6.0831710902193420e-04  2.7984179721931208e-03  4.7199388217561700e-03  7.8198679826059873e-03  5.2236504810541113e-03  -6.4483161177892408e-04  -1.8444979689862444e-03  -1.1400056955052175e-02  4.9662973874790134e-04  -1.0908613610460258e-02  1.1953155692712816e-02  2.6207364187328585e-03  1.1747124404268849e-03  -8.5920529995396865e-03  1.5535461842989144e-02  5.4660508952717023e-03  9.1696016743261863e-03  -4.0606077960818757e-03  -1.0903574718435184e-02  1.7084322485441600e-03  1.2191621549702613e-02  2.7091700171685671e-04  -5.5015707043811748e-03  -7.0415700719375293e-03  -1.0036612865111465e-02  3.0421781940169777e-04  1.7518654660804538e-02  6.8378593970252277e-03  -9.4741077953344500e-03  8.2214783097701652e-03  4.3481180892367688e-03  -8.6774767473962247e-03  -1.9800744806168996e-03  1.4537881940402432e-02  -6.6736802658858537e-03  1.5946340292213920e-02  3.9310834707090231e-03  -6.9011840711314092e-04  -5.4510511083633410e-03  -2.1249789910489810e-02  1.6758889659319945e-02  1.5357818215058121e-02  3.7979178988188354e-03  -1.2593894024294843e-02  8.6500567145678629e-03  5.5332014989779377e-04  7.8153291616980172e-03  8.4914369749998046e-03  7.9130823394245027e-04  1.7721301451808077e-03  3.5533816564261621e-03  -3.9262974524173523e-03  -4.7616228455793193e-03  -2.1204202731085715e-02  2.1688528870339008e-02  7.8636899970004979e-03  3.8763087750585670e-03  6.5897127682789294e-03  2.1432127632059497e-04  -9.2642503421079298e-04  -3.4287918499924905e-03  -4.9698752647874146e-03  -1.3486320570030567e-02  3.2474884470266867e-03  2.0636082378511960e-03  5.6120510730942944e-03  -6.5219338417205281e-03  1.1292111799920988e-02  2.8772490519015717e-03  -7.3813290063127395e-04  -4.0178696251815206e-03  -1.3696055518013481e-02  -2.2930252534293992e-03  -1.0903274589114553e-02  -8.2233259544946724e-04  2.5251710945457650e-03  2.3793205410615999e-03  -5.2102336264509075e-03  -9.1277769426279607e-03  6.3345908539245354e-03  -5.2325522187318188e-03  -6.6378903000220311e-03  6.1287714050070694e-04  4.6434978888967851e-03  1.4896707428217333e-02  -1.9927965814459814e-03  -6.1570944464348206e-04  -7.7863968127594128e-03  8.5503467406022552e-03  2.3639049086381257e-03  -2.1087529014180165e-02  6.5369561609476406e-03  1.1124261178766484e-02  5.4140417738247392e-03  -6.4760522213427709e-03  -1.0912734632395789e-02  -7.9774967195837022e-03  6.7903562708477045e-03  1.2719762121713147e-02  2.0077116853131683e-03  -7.4458924846428971e-05  -7.9009696039865681e-03  -2.5665244265313221e-03  1.6088704578587219e-03  1.5157214890434252e-03  5.8105877753302946e-03  -3.1198336814779295e-03  -1.8657680771901864e-03  6.4176382243577431e-03  -2.6051255554559601e-03  1.8256273799842293e-02  -1.3151737627480457e-03  -4.1816177416449246e-03  -1.5341426022872723e-02  1.3902539676168330e-02  -9.1775987094950776e-03  3.7363966976167499e-03  8.4904360098578841e-03  -3.1261775564098062e-03  6.6428303637265044e-03  -2.5058553088112031e-03  -3.5957784152807412e-03  2.3676359121850843e-03  -7.9475884686582010e-03  1.1452524925523025e-02  -3.3825813650839465e-03  1.0706323872944363e-02  2.1611158071799708e-03  8.4974452812310239e-03  -2.9967463759084561e-03  -2.3696149001391207e-03  -3.0306168605616860e-03  -2.7147092613602096e-03  -5.5446758339238881e-03  -1.5089505355952876e-02  1.0848787456718676e-03  9.3282203929651360e-03  8.6414140043665488e-03  -8.8909460085548290e-03  -1.2064073258050916e-02  8.8403550877632891e-03  3.7484002257701975e-03  -1.6648472258049994e-03  -2.3730001926924055e-03  5.9104891133951486e-04  1.5418680003266396e-03  -3.1811176979280611e-02  1.6912787076547767e-02  2.5943456109379561e-03  3.4399302971304643e-04  -5.1826367820466740e-03  -8.1954909794811955e-03  1.9608265125921490e-03  -1.4807710966705107e-02  1.3945777434996665e-02  2.1493761730861584e-03  6.7591094100988530e-04  6.1483829787133248e-03  -4.7805657326527038e-03  1.8787000214310380e-03  -2.0016230605091254e-04  -7.1009681846362247e-03  3.4853799469300329e-03  -5.9169458986115114e-03  -1.0275057405438267e-02  2.1131614296339685e-02  3.4150015964844213e-03  -2.0778913300314742e-04  -8.5701539020992101e-03  4.5921513399893015e-03  -3.7463834331281413e-03  2.4540657560958743e-03  -9.0288128870409743e-03  1.9174334375984077e-03  -1.1962777202631619e-02  3.9409566780463064e-03  9.9863545711586284e-03  -3.9292474237130467e-03  -3.0820621547142699e-04  -2.1613746503952821e-03  -3.6715830050896695e-03  1.1223773468312518e-03  -5.4319315994906039e-03  -1.8370765928960624e-02  1.0412385494455337e-02  1.1802456556151355e-02  1.0660100456202757e-02  6.7783034144694660e-03  -5.9721208346426053e-04  4.5654225990256940e-03  1.3169624287769882e-03  -6.0316967264094253e-03  9.4843822286445039e-03  -6.4539649271881262e-03  3.5293738782011829e-03  -5.6194083204958436e-03  1.2527632218606664e-02  -8.8518398932285920e-03  -7.5764601423088810e-03  -1.3182631667781119e-02  1.2668704191485089e-02  -9.7669194731890389e-03  -3.7981966942921275e-02  5.9522587530586833e-03  -5.9228257125470401e-03  -1.1117692798024496e-02  -4.3252436863336748e-02  -1.5883788938228484e-02  5.9155551526202345e-03  -1.8168625549557435e-02  -4.4372744665691730e-02  -4.2547613694938508e-02  8.0581591470987278e-03  -1.3303319577249893e-02  -6.3758622643160387e-02  -1.6193215559468864e-02  -4.2243436505509976e-02  9.4212149976492950e-04  6.6428812737157799e-04  -1.8190023151613326e-02  -3.4962603725637365e-02  -1.8070339119530262e-02  -2.6159017044503456e-02  -3.1026280342506620e-02  6.7110783225235743e-03  -5.2993876652402433e-02  -2.1216501561634106e-02  1.8675842688382044e-02  -4.4054061285303557e-02  -4.8420647790211758e-03  -1.8514797350739493e-02  -3.1465723184428744e-02  -1.8882654905274894e-03  -4.2883781367852467e-02  -1.4824420703008346e-02  -2.1281018516741815e-02  -2.4780166476730762e-02  -6.4791521647187822e-03  -1.3592169965329796e-02  -5.8819995253705147e-02  5.9130604780686076e-03  -2.1563359812355156e-02  -2.9468088449940869e-02  -1.6849658147892025e-02  -1.9887336197457334e-02  -1.3677611398679151e-02  -4.6428366433420340e-02  -3.3054608333763669e-02  -4.2664755902137023e-02  -1.5244488214051493e-03  -1.6291429528251369e-02  -4.4838324605083017e-03  -1.7196235458730762e-02  -5.6952857731837850e-02  -3.0843316607608876e-02  -1.8335219275175608e-02  1.2013647711706805e-02  -3.5512176654785406e-02  -1.6028973059529814e-02  -1.6846575629309905e-02  -5.4087760049637959e-02  5.0131465647182275e-03  -4.4388079061978204e-02  1.0006142616285477e-02  -1.4952415804860017e-02  -7.4368540880861101e-03  -1.4971698847156772e-02  -4.0621490636418657e-02  -2.8646413174699119e-02  -2.2408743189348088e-02  -1.8585775188439454e-02  -5.1800014535395905e-03  -4.5057361998758429e-04  -5.7573125860119610e-02  1.7635929828624268e-02  -3.0727137655427953e-02  -2.8365947693342330e-02  -5.6458645249275456e-02  1.0213222874000381e-03  -2.9082972357051401e-02  4.9071016515604311e-03  -8.3202781442834831e-03  3.8421168522607754e-03  -3.8526178562856145e-02  -3.1368012562716439e-03  -1.5353812169505683e-02  -4.3306066908346012e-03  -3.0291251928420818e-02  -1.0156042250078495e-02  -1.5590321687893630e-02  -2.2873144044646031e-02  -4.9906984565926248e-03  -2.3129775579935525e-02  -3.2657408941230523e-02  -2.0245946111851841e-02  1.2927167902426793e-02  -4.0822088017216252e-03  -4.0372539499064539e-02  -1.9370614699513570e-02  -2.1285883894335646e-02  6.3220007465473679e-04  -4.6367037311203629e-03  8.8983512026753978e-03  2.9269482521808565e-03  1.7567283101262189e-02  4.4121842126658434e-04  -1.8077851138049276e-02  1.3932221047007010e-03  -1.3556172025536266e-02  -6.8564316353728946e-03  -1.8934473594494038e-03  -3.4754976226537677e-03  -4.8730880405859203e-03  3.3366287899896968e-03  -3.4957799370666977e-03  6.9067861496722519e-03  1.0719161960957783e-02  9.4496006297892850e-04  8.0328271342549695e-04  3.8763133215114765e-03  -3.0229526085357003e-03  -1.6582904538473308e-03  -4.1120121548382611e-03  -1.0656568010048180e-05  9.4717743741536149e-03  -4.1740570617257991e-03  1.0731636630134916e-03  -5.3075114442881037e-03  -1.2478361959356839e-02  -7.2920369977029324e-04  -1.3171439662589579e-02  -6.0260429471288793e-03  3.7919685277261646e-03  1.0068247832908826e-02  -6.0557016298662791e-03  4.9117569753734875e-03  7.2133108764004428e-04  7.2311717633067683e-03  -1.8670487767488296e-03  4.4946319898911350e-03  -4.4421097102831056e-06  -2.6420900221059028e-03  6.5475840127090052e-03  1.1055069444108367e-02  -2.5332222008457371e-03  7.2424764428118621e-03  -1.1306489587189217e-02  -2.9401026429710015e-03  -2.9010122088856840e-03  5.2164816882544094e-03  -2.0286868173402896e-02  -1.5448051815226523e-02  1.2456868565243581e-02  3.8517747853331875e-02  -2.2874455993418311e-02  1.7310500508395325e-02  1.0742668513414206e-02  9.4085859113662296e-03  -4.0780956232090645e-03  8.7163106364890643e-03  2.9433775342268903e-02  -1.7101144557795420e-02  -4.2817010289289466e-03  3.0415249829178520e-03  3.4908323786200313e-03  -3.5547888970362735e-03  -4.9083682564924887e-04  9.0111552113189795e-03  -3.7280387087825569e-03  5.3802087645101965e-03  -1.0507746599529256e-03  1.4796549599821846e-03  -6.4169299859454920e-03  1.3987348816758024e-02  -1.1517808281064306e-02  -7.5605630793937478e-03  6.7770987354859496e-03  -2.3330827900872072e-03  -7.2516776210474693e-03  9.4538922750289720e-03  2.8303953725878303e-03  -5.3581414488739652e-03  -3.8802548047190905e-03  7.6162657700116045e-03  -7.9611851377520901e-03  6.5795540217448577e-04  -4.7839575092019073e-03  -3.8549276734723731e-03  -6.6491241053376977e-04  -5.9193925805598362e-03  -1.9872765777449804e-03  -1.2395444971212815e-04  3.7145500997945117e-03  9.9925521295965904e-03  2.9752321380425789e-04  -2.0314184691399310e-03  3.3421998749590637e-03  7.8379307233397144e-03  3.2691567452202541e-03  -2.7570378182017524e-03  3.3938951434567648e-02  -6.3168476025200655e-03  -1.5066752863823587e-02  7.3233675938609698e-03  -7.8817535184628838e-03  3.6378901828401089e-03  -1.0270308676240136e-02  -1.4503795266404584e-02  1.0629537868801931e-03  1.0767995608950338e-03  7.6558217467196316e-03  1.4591887308513152e-02  -1.6138647106285909e-03  6.2713208971978416e-03  -6.9551667333880886e-03  2.6493597756536983e-02  8.2238420726481673e-03  8.7109488306244872e-03  -1.7529411370176312e-03  2.4407437516043365e-03  1.6198200147887039e-02  -1.4750595649707645e-02  1.5624161506705436e-02  1.0192185074773595e-02  1.5066678196379666e-02  -3.2906706670786968e-03  6.3361138347269932e-03  6.9525029160441114e-03  6.8715495335292861e-03  -9.9605004201036833e-03  4.3624998387362364e-03  -4.2912026315789029e-03  1.3986263427046720e-02  1.0931001442916852e-02  2.0463280223631183e-02  9.3937106812307658e-03  4.7831914022242166e-03  -2.0079177068269206e-04  -8.1783448828352129e-04  -8.9498383862416080e-03  6.2583758234976694e-03  -6.8621385930049319e-03  3.0504377269608362e-03  -6.2524227421231482e-03  -1.1175609307975412e-02  4.6422287530504890e-04  4.6633813589142493e-03  -8.5766784738692536e-03  2.6108729955665922e-04  -2.1651276178464001e-03  -8.1240005561594090e-04  3.8359641559792103e-03  5.2996256156474944e-03  -8.7480478918038375e-03  -6.3887200018809690e-03  1.0847839332312041e-03  4.2984765296869313e-03  2.8906215750612157e-04  1.9298291955944348e-03  -4.3007364279408732e-03  -1.6147982878000004e-02  8.7344161868116305e-03  8.3086566481161538e-03  4.1829964096531834e-03  -5.0722358895343564e-03  -3.6112326096253197e-03  -1.6413692892085134e-03  -7.7677126067883578e-03  1.0902386517695453e-02  -3.2947640759786244e-03  5.1680223275425820e-03  -6.6168865236885589e-04  -9.9338222729972014e-03  -1.9049544317064052e-03  1.3882098418395201e-02  -4.5174637486672457e-04  4.9449391735855337e-03  -8.7938988887245363e-03  6.5509299373097945e-03  -6.1318905335367999e-03  5.4694722217342555e-03  -1.8941976328118487e-03  1.2854471468511013e-04  1.0884440168979784e-04  8.5224183568346715e-03  -2.8277828255960954e-03  -2.1513993114202341e-02  -7.4798518288956650e-04  1.4115472954667928e-02  -9.0482804953411489e-03  -9.5250146696132174e-03  -3.5247680159333585e-03  2.3477380063620184e-03  -1.3617114262931272e-02  6.2212909414650196e-03  -7.4981648273270800e-03  -6.8433098227240084e-03  -9.9806187457374129e-03  1.0662464496268219e-02  1.4989399391641854e-03  -1.9021466403193101e-02  -4.6104301040272881e-03  2.8936436506407440e-03  -1.9683416341365946e-03  6.0333728546565230e-03  -9.1561052824869378e-03  -1.1300519866229528e-03  -1.1419658589159385e-02  -6.8113877340609799e-03  1.4447727235568635e-02  1.4747180516618743e-03  -5.1051386530335113e-03  3.3667692391976872e-03  -1.0276988245906175e-02  1.0289888498235835e-03  -1.7104399111245401e-02  8.4512740532814868e-03  4.5131703386750476e-03  -5.3844484733384674e-03  -2.5454639942319398e-03  3.0935932144773885e-03  4.7960962037433578e-03  4.7322281744861978e-03  -8.9695865332726152e-03  -3.9315021843353186e-03  -5.5927843749554280e-04  -3.7382706645103640e-05  1.2356304702846311e-02  -3.0468859855271170e-03  -8.8406858834325953e-03  -6.5356240794918377e-04  6.8859898067345588e-03  -1.5833447303357898e-02  -8.8124995067436242e-03  -5.3464110789741559e-03  -4.3079237333641558e-03  1.1198427348378587e-02  2.9833333048622009e-03  7.6498087770958236e-03  6.5810797305023211e-03  3.2227300668612763e-02  -6.8838259467684177e-03  2.2477342074341610e-02  8.6605596525193580e-03  3.5649396973941906e-02  1.0892709959696793e-02  -2.6268820512948638e-03  3.5216122226131671e-02  -1.6484239244709053e-02  -4.9719448911790670e-03  6.8834417399903118e-03  2.0483343786097969e-03  -1.2223073076852173e-03  8.2668379265183004e-03  1.1100657160007644e-02  5.2970919673435797e-03  -1.0947120193882584e-03  1.0808201701442246e-02  1.4760985699833454e-02  -1.1641001079564884e-02  3.7707980061459879e-03  9.8954239012417344e-03  -3.2211305338294099e-03  -2.9870989288667115e-02  -1.1634375351350937e-02  -1.1080893594366247e-02  -1.7287560280105158e-02  -5.0036964670119033e-03  2.0689830036644923e-02  7.5193951819648222e-04  2.3852783989750325e-03  1.2178992924421789e-02  2.3983041042918789e-03  -5.8521479366869878e-03  6.0032809687301644e-03  2.6269365060920022e-02  -2.8985397045763631e-04  7.0670616390677270e-03  8.7918314524123454e-03  3.6276176757845226e-03  6.4115156956549412e-03  3.0562448966351850e-03  8.6135708509386521e-03  -9.1303304715987625e-03  1.2358945987235902e-02  9.5025213088118093e-03  6.8706683332337834e-03  5.4898165669515454e-03  2.8231647321610331e-02  -5.0507269845752644e-03  -2.0679126491448745e-02  8.7404450632589392e-03  -4.4752387823811558e-03  1.5519816940283676e-02  1.1733815300130079e-02  3.2312525053639768e-03  -6.2671663529368813e-03  -1.6904095576047676e-03  1.2565915874451399e-03  4.3485727704645460e-04  -1.0466960377764336e-03  4.7519213936426099e-03  1.1327400041090672e-02  2.7315596555735570e-03  2.1769055906786022e-03  -7.6096780841861033e-03  -1.4726333184975807e-02  -1.2855863754505877e-03  -1.6809613789945957e-02  1.0376964129186114e-02  -1.1919646203749140e-02  -1.7025083972903622e-04  9.0125895645480486e-03  -7.4578607724774815e-03  -1.0206467255883988e-02  2.2679699991494560e-04  -1.2526289024698014e-02  9.7563557948665905e-03  1.0549602258922068e-03  1.4113817671524252e-02  5.6541258785568465e-03  -2.7691689775066898e-05  -3.8504277001368665e-03  -4.2249313545860926e-03  -1.6753924065866758e-04  2.5463742429826467e-02  -9.2883217052519974e-04  6.6474189569895922e-03  4.2170340538788360e-03  -9.1709115611827222e-03  -7.9085683259420003e-03  -3.7581572200549554e-03  1.7404863750184917e-02  9.9041881213674538e-03  8.1184814256712022e-04  3.4154665375044115e-03  -6.4759410935576163e-03  -1.5596136092910172e-03  -2.4224192695917993e-03  5.7767705552915459e-03  6.5947927967128183e-04  -3.6558491713922320e-04  1.1848411862150283e-03  5.6838102525282163e-03  -1.2540243583730195e-03  -1.3498494683590267e-03  1.3918939375404092e-03  -5.6737751263475650e-03  -5.1920670064647774e-03  -7.2598520917344965e-03  -2.7397418526875885e-03  -3.1546621541014586e-04  -2.3626638865736471e-03  1.7584137397553285e-03  -1.7339242713089953e-02  4.4627102783727033e-03  1.2184651713107728e-04  -1.6158186458823656e-03  -3.5235985658289260e-03  3.2608043248701212e-03  2.3582078998029093e-02  1.4397447534443629e-03  3.1448881352488679e-03  2.5377560697317230e-03  1.7117706965682027e-02  1.1187251306853658e-02  -3.9213527041035839e-02  -5.1171082022004773e-03  7.2283798775603413e-03  -7.3454573432637591e-03  -9.2092140483432394e-03  -8.0378151948794583e-03  3.8091056812192942e-04  -5.2408402665967933e-03  -1.6411261484297751e-03  6.1291008789037520e-03  7.8357895777478419e-03  -1.7587583985389992e-04  2.3714143019355994e-03  4.9561882631225622e-03  -9.3022349522040655e-04  -1.5429426670006776e-03  -1.8445746687027122e-02  -9.7331357072085638e-04  1.5648063711345639e-02  1.0274928973786571e-02  2.2940728851408047e-03  1.2989195448261003e-02  1.0608867762880895e-02  -7.2090265276103611e-03  -4.8785729264637220e-03  -1.1689847348074435e-02  -1.3516847171063457e-04  5.3334612999968462e-03  2.2546061774417238e-03  5.0782537149094786e-04  1.8421084540442313e-03  1.3956654983212902e-03  4.0419873316696782e-03  2.3656235539856003e-03  6.5574826071925479e-03  1.0659311542826344e-02  9.4980675885208976e-03  8.5074062475266870e-03  1.2787186757062705e-03  1.0268523476477174e-02  -1.3951018457258328e-03  -8.6742303617735415e-03  7.4410782522369729e-03  1.4166753402941044e-02  -5.5897322140914512e-03  4.0522197545925153e-03  2.9158566362712086e-03  7.3724942008476487e-03  6.6264334520034652e-03  -2.3771022413004352e-02  7.6248893419063263e-03  -1.1921904839743154e-03  -1.3807341158305294e-03  -1.0627164468304306e-02  1.7729944953266037e-02  -6.6519758139310583e-04  -2.3430740904773007e-03  -5.2484423333693398e-04  -2.0957423826229583e-03  2.0194676541197137e-03  -3.2195330192745348e-03  1.2162356993791928e-03  -8.1281805627060285e-04  -1.3681565144138580e-03  1.0476640983921467e-02  3.3470681044509604e-03  4.3346720186285669e-03  -4.5192405450281947e-05  3.8606475707365505e-03  -6.7159702735543622e-03  1.2782301931829280e-02  -1.4030892645608058e-02  -6.6445394526224747e-03  -2.2079437126921196e-02  4.3448107802430630e-03  -1.6578717081379181e-02  -6.0406474149867460e-03  1.2822265229297268e-02  -4.7890611578833278e-03  -5.9371717913514416e-03  -2.0729881359574801e-03  3.0717158170456066e-03  -1.6627457824091262e-02  1.2096762187019654e-02  -4.1068519609602358e-03  -4.4780463464336026e-03  -5.7895202984263063e-04  4.1994925453792045e-03  -3.1104689729169193e-03  -1.4927507396847465e-03  -1.8574375582860691e-02  2.5361612666799389e-03  -1.7183011569862929e-02  -9.52