<?xml version="1.0"?>
<VTKFile type="UnstructuredGrid"  version="0.1"  >
<UnstructuredGrid>
<Piece  NumberOfPoints="10909" NumberOfCells="21162">
<Points>
<DataArray  type="Float64"  NumberOfComponents="3"  format="ascii">-0.09999216720722226 0.001251597859899349 0  -0.09999216720722226 -0.001251597859899324 0  -0.09992951222712528 -0.003754009329879275 0  -0.09980424152647172 -0.006254068541813297 0  -0.09961643359974248 -0.008750208961396265 0  -0.0993662061271743 -0.01124086650983409 0  -0.09905371590102154 -0.01372448054389361 0  -0.09867915872731027 -0.01619949483379979 0  -0.09824276930314649 -0.01866435853836769 0  -0.09774482106965511 -0.02111752717675784 0  -0.09718562604064213 -0.02355746359624618 0  -0.09656553460708706 -0.0259826389354021 0  -0.0958849353175884 -0.02839153358207142 0  -0.09514425463489948 -0.03078263812556374 0  -0.09434395666870733 -0.03315445430244742 0  -0.09348454288482222 -0.03550549593535961 0  -0.09256655179095953 -0.03783428986424361 0  -0.09159055859931162 -0.04013937686942917 0  -0.09055717486612039 -0.04241931258597781 0  -0.08946704810847689 -0.04467266840872038 0  -0.08832086139858776 -0.04689803238741953 0  -0.08711933293576302 -0.04909401011149607 0  -0.08586321559639315 -0.051259225583765 0  -0.08455329646219767 -0.05339232208263388 0  -0.08319039632704039 -0.05549196301222316 0  -0.0817753691826212 -0.05755683273987554 0  -0.08030910168336558 -0.05958563742052986 0  -0.07879251259084807 -0.06157710580744316 0  -0.07722655219809717 -0.06352999004875236 0  -0.07561220173414296 -0.0654430664693768 0  -0.07395047274917997 -0.0673151363377717 0  -0.07224240648073096 -0.06914502661705209 0  -0.0704890732012087 -0.07093159070001633 0  -0.06869157154728435 -0.07267370912760898 0  -0.06685102783148329 -0.07437029029037232 0  -0.06496859533643848 -0.07602027111244807 0  -0.06304545359224527 -0.07762261771769907 0  -0.06108280763736874 -0.07917632607753537 0  -0.05908188726356842 -0.080680422640037 0  -0.05704394624531189 -0.08213396493998064 0  -0.05497026155416092 -0.08353604218938757 0  -0.05286213255862293 -0.08488577584822193 0  -0.05072088020996789 -0.08618232017488325 0  -0.04854784621452173 -0.08742486275614705 0  -0.04634439219295482 -0.08861262501622209 0  -0.0441118988270916 -0.08974486270460519 0  -0.0418517649947774 -0.09082086636242756 0  -0.0395654068933429 -0.09183996176700104 0  -0.03725425715221625 -0.09280151035428542 0  -0.0349197639352395 -0.09370490961901168 0  -0.03256339003325057 -0.09454959349221126 0  -0.03018661194749989 -0.09533503269591435 0  -0.02779091896447685 -0.09606073507479465 0  -0.0253778122227242 -0.09672624590455349 0  -0.02294880377222645 -0.09733114817684957 0  -0.02050541562696112 -0.0978750628605958 0  -0.01804917881120608 -0.09835764913945998 0  -0.01558163240020206 -0.09877860462541965 0  -0.01310432255576947 -0.09913766554823829 0  -0.01061880155748498 -0.09943460692074342 0  -0.008126626830025281 -0.09966924267980326 0  -0.00562935996728636 -0.09984142580291366 0  -0.003128565753890103 -0.09995104840032237 0  -0.0006258111846929931 -0.0999980417826325 0  0.001877335517092352 -0.09998237650384323 0  0.004379305882543121 -0.09990406237980078 0  0.006878532179827535 -0.09976314848204761 0  0.009373448396544122 -0.09955972310707441 0  0.01186249122098281 -0.09929391372099353 0  0.01434410102169454 -0.09896588687966891 0  0.0168167228247549 -0.09857584812435229 0  0.01927880728810846 -0.09812404185289136 0  0.02172881167238507 -0.09761075116659038 0  0.02416520080757896 -0.09703629769281898 0  0.02658644805498359 -0.09640104138348123 0  0.02899103626378299 -0.09570538028946973 0  0.03137745872169579 -0.09494975031124768 0  0.03374422009907978 -0.09413462492571403 0  0.03608983738590409 -0.0932605148895233 0  0.0384128408210011 -0.09232796791904624 0  0.04071177481301732 -0.0913375683471712 0  0.04298519885248568 -0.09028993675716174 0  0.04523168841444655 -0.08918572959380006 0  0.04744983585105387 -0.08802563875205931 0  0.0496382512736056 -0.08681039114356295 0  0.05179556342344641 -0.08554074824110286 0  0.05392042053119698 -0.08421750560150111 0  0.05601149116377094 -0.08284149236711523 0  0.05806746505864942 -0.08141357074629837 0  0.06008705394489031 -0.07993463547314045 0  0.062068992350357 -0.07840561324682899 0  0.06401203839466206 -0.0768274621509803 0  0.06591497456732821 -0.07520117105330526 0  0.0677766084906786 -0.07352775898598621 0  0.06959577366697992 -0.07180827450715208 0  0.07137133020936784 -0.07004379504385366 0  0.07310216555609947 -0.06823542621694852 0  0.07478719516768322 -0.06638430114832015 0  0.07642536320644966 -0.06449157975086556 0  0.07801564319813849 -0.06255844800169477 0  0.07955703867508632 -0.06058611719899883 0  0.08104858380061176 -0.05857582320305206 0  0.08248934397420797 -0.05652882566182319 0  0.0838784164171622 -0.05444640722168118 0  0.08521493073823577 -0.05232987272369083 0  0.08649804947905057 -0.05018054838600033 0  0.08772696863883907 -0.04799978097283517 0  0.0889009181782307 -0.04578893695061648 0  0.09001916250175765 -0.04354940163173486 0  0.09108100091877785 -0.04128257830651554 0  0.09208576808252723 -0.03898988736391795 0  0.0930328344070252 -0.03667276540152144 0  0.09392160646157242 -0.03433266432535521 0  0.09475152734259386 -0.0319710504401355 0  0.09552207702259409 -0.02958940353048034 0  0.09623277267600569 -0.02718921593367883 0  0.09688316898172744 -0.02477199160459344 0  0.0974728584021618 -0.02233924517328454 0  0.09800147143857771 -0.01989250099594415 0  0.09846867686263801 -0.0174332921997361 0  0.09887418192394669 -0.01496315972214073 0  0.09921773253348604 -0.01248365134540491 0  0.09949911342282847 -0.009996320726703157 0  0.09971814827902359 -0.007502726424618317 0  0.09987469985507552 -0.005004430922550236 0  0.09996867005594191 -0.002502999649665144 0  0.1 0 0  0.09996867005594191 0.002502999649665096 0  0.09987469985507554 0.005004430922550164 0  0.09971814827902359 0.007502726424618309 0  0.09949911342282848 0.009996320726703126 0  0.09921773253348604 0.01248365134540486 0  0.09887418192394669 0.01496315972214074 0  0.09846867686263801 0.01743329219973608 0  0.09800147143857772 0.01989250099594411 0  0.0974728584021618 0.02233924517328456 0  0.09688316898172744 0.02477199160459344 0  0.09623277267600572 0.02718921593367872 0  0.0955220770225941 0.0295894035304803 0  0.09475152734259389 0.03197105044013543 0  0.09392160646157242 0.0343326643253552 0  0.09303283440702523 0.0366727654015214 0  0.09208576808252726 0.0389898873639179 0  0.09108100091877785 0.04128257830651555 0  0.09001916250175765 0.04354940163173485 0  0.08890091817823072 0.04578893695061644 0  0.08772696863883905 0.04799978097283519 0  0.08649804947905056 0.05018054838600035 0  0.08521493073823583 0.05232987272369073 0  0.08387841641716223 0.05444640722168113 0  0.082489343974208 0.05652882566182314 0  0.08104858380061178 0.05857582320305206 0  0.07955703867508633 0.06058611719899881 0  0.07801564319813853 0.06255844800169473 0  0.07642536320644966 0.06449157975086556 0  0.07478719516768322 0.06638430114832015 0  0.0731021655560995 0.06823542621694849 0  0.07137133020936781 0.07004379504385369 0  0.0695957736669799 0.07180827450715209 0  0.06777660849067867 0.07352775898598612 0  0.06591497456732824 0.07520117105330523 0  0.06401203839466212 0.07682746215098026 0  0.06206899235035701 0.07840561324682899 0  0.06008705394489031 0.07993463547314045 0  0.05806746505864946 0.08141357074629835 0  0.05601149116377094 0.08284149236711523 0  0.05392042053119699 0.08421750560150111 0  0.05179556342344643 0.08554074824110285 0  0.04963825127360558 0.08681039114356297 0  0.04744983585105388 0.08802563875205929 0  0.04523168841444657 0.08918572959380004 0  0.04298519885248572 0.09028993675716171 0  0.04071177481301738 0.09133756834717116 0  0.0384128408210011 0.09232796791904624 0  0.03608983738590412 0.0932605148895233 0  0.03374422009907983 0.09413462492571401 0  0.03137745872169577 0.09494975031124768 0  0.02899103626378299 0.09570538028946973 0  0.02658644805498361 0.09640104138348121 0  0.02416520080757892 0.09703629769281899 0  0.02172881167238516 0.09761075116659035 0  0.01927880728810846 0.09812404185289136 0  0.01681672282475495 0.09857584812435227 0  0.01434410102169461 0.0989658868796689 0  0.01186249122098281 0.09929391372099353 0  0.009373448396544148 0.09955972310707439 0  0.006878532179827604 0.09976314848204761 0  0.004379305882543101 0.09990406237980078 0  0.001877335517092354 0.09998237650384323 0  -0.0006258111846929686 0.0999980417826325 0  -0.003128565753890144 0.09995104840032237 0  -0.005629359967286269 0.09984142580291366 0  -0.008126626830025279 0.09966924267980326 0  -0.01061880155748493 0.09943460692074342 0  -0.01310432255576943 0.09913766554823829 0  -0.01558163240020205 0.09877860462541965 0  -0.01804917881120606 0.09835764913945998 0  -0.02050541562696107 0.09787506286059582 0  -0.02294880377222647 0.09733114817684957 0  -0.0253778122227242 0.09672624590455349 0  -0.02779091896447682 0.09606073507479465 0  -0.03018661194749985 0.09533503269591437 0  -0.03256339003325048 0.0945495934922113 0  -0.03491976393523949 0.09370490961901168 0  -0.0372542571522162 0.09280151035428545 0  -0.03956540689334286 0.09183996176700107 0  -0.04185176499477741 0.09082086636242755 0  -0.04411189882709158 0.0897448627046052 0  -0.04634439219295476 0.08861262501622214 0  -0.04854784621452175 0.08742486275614705 0  -0.0507208802099679 0.08618232017488325 0  -0.05286213255862291 0.08488577584822195 0  -0.05497026155416086 0.08353604218938761 0  -0.05704394624531183 0.08213396493998068 0  -0.0590818872635684 0.080680422640037 0  -0.06108280763736872 0.07917632607753539 0  -0.06304545359224521 0.07762261771769911 0  -0.06496859533643849 0.07602027111244805 0  -0.06685102783148326 0.07437029029037233 0  -0.06869157154728432 0.072673709127609 0  -0.07048907320120865 0.07093159070001638 0  -0.07224240648073095 0.06914502661705212 0  -0.07395047274917996 0.06731513633777172 0  -0.07561220173414293 0.0654
[...]
<PointData  Scalars="tau_rtheta [Pa]"> 
<DataArray  type="Float64"  Name="tau_rtheta [Pa]"  format="ascii">6.4596015398760108e-03  9.6766777203127329e-03  6.2222045062670190e-04  -7.0179052894018693e-03  -2.0276101812015421e-02  2.5311512833752145e-02  7.6948759627632340e-03  5.9342598213366765e-04  1.0645291182103925e-02  6.9514002966195613e-03  -7.8716236493490983e-03  -1.7921952419063566e-03  1.8420757227656358e-03  -4.2382001572901160e-03  -5.1697277883450089e-03  -8.8741701359274956e-03  1.6545296927524707e-03  1.4203204841897831e-02  -6.5497921540315466e-05  3.4569975215197660e-03  -4.3433468232730293e-03  -1.3455775847116425e-02  1.8283635615074151e-02  3.9126393025843152e-04  9.8186186125961087e-03  1.1291802755967507e-03  2.9471678720594638e-03  3.5901303650312686e-03  2.4216107553554685e-03  5.9190313557851556e-03  -8.9024404680247155e-03  -1.1723582934486471e-02  -1.6609810809188247e-02  2.5123260552587574e-02  7.2391346269732662e-03  -1.2949236261760358e-03  -2.6095375665934313e-03  -1.7675261698096162e-03  8.1540354970793781e-03  -2.2513063014908017e-03  9.9076501276399546e-03  1.2348709341913160e-03  -9.9113190749449999e-03  -5.7697111184004946e-03  2.8532611411696994e-03  3.4929411705394348e-03  -1.2131923238487193e-02  1.2615687062199546e-02  -3.0223786252429239e-03  7.4439550105522504e-03  -2.6051394737187043e-03  1.0002640300819541e-02  5.9599731843867128e-04  2.7860541856073559e-03  4.7075516627168015e-03  7.8074055653979523e-03  5.2111361075727319e-03  -6.5740299170885779e-04  -1.8571198500204630e-03  -1.1412728877895947e-02  4.8400870962688933e-04  -1.0921185230714666e-02  1.1940764273028297e-02  2.6084033869883160e-03  1.1624057458440743e-03  -8.6043618952073419e-03  1.5522963104521640e-02  5.4534247312162292e-03  9.1567894955870872e-03  -4.0735181902374368e-03  -1.0916624788261815e-02  1.6953844598278842e-03  1.2178885143409542e-02  2.5839609030611039e-04  -5.5138889354709626e-03  -7.0537162778265489e-03  -1.0048821166533899e-02  2.9177270311850584e-04  1.7505903136949878e-02  6.8249901145452443e-03  -9.4870064199599254e-03  8.2085884493829486e-03  4.3352816392561409e-03  -8.6902602217182427e-03  -1.9929151996708060e-03  1.4524917465794242e-02  -6.6867505105230821e-03  1.5933978201484341e-02  3.9203268646353859e-03  -6.9986948278759993e-04  -5.4631791013928267e-03  -2.1265163259407902e-02  1.6743804667746359e-02  1.5345370614869165e-02  3.7859596854117922e-03  -1.2605736053232952e-02  8.6371300136220894e-03  5.4016294176487427e-04  7.8026877913628216e-03  8.4794949435556388e-03  7.7949143848244794e-04  1.7599730725525997e-03  3.5402146164040357e-03  -3.9400568778518441e-03  -4.7752449897417882e-03  -2.1217432604085509e-02  2.1680944530954632e-02  7.8576307767462376e-03  3.8726330006191383e-03  6.5882428964087235e-03  2.1405542362349769e-04  -9.2958219373860023e-04  -3.4463335615867213e-03  -5.0137524084581898e-03  -1.3557888425148703e-02  3.1309387733629876e-03  1.9669488941722255e-03  5.6227495472986723e-03  -6.4602122316132753e-03  1.1479582726133607e-02  3.0723730297998104e-03  -6.2676866857266553e-04  -4.0501996145073460e-03  -1.3820955852384393e-02  -2.5033728906642613e-03  -1.1084211433978940e-02  -8.6128292516465007e-04  2.5421890715731669e-03  2.3812741621527566e-03  -5.2237859266079959e-03  -9.1329812048946846e-03  6.3739158280930732e-03  -5.1904228045853906e-03  -6.6133677054550219e-03  6.0323649270615273e-04  4.6150573914272306e-03  1.4869789260980511e-02  -2.0152783010680543e-03  -6.3021885629160174e-04  -7.7973034176094880e-03  8.5405922957919531e-03  2.3532560490510269e-03  -2.1098583626151215e-02  6.5224053487635712e-03  1.1109246228384231e-02  5.3995267110235794e-03  -6.4900552375961101e-03  -1.0925772716262184e-02  -7.9899641367408396e-03  6.7780722375967049e-03  1.2707154762884011e-02  1.9949093218395420e-03  -8.7482523522738466e-05  -7.9141059007655310e-03  -2.5796613470764444e-03  1.5959297001614907e-03  1.5030358501232413e-03  5.7981160499262678e-03  -3.1322728090648110e-03  -1.8782817784206622e-03  6.4050222332188182e-03  -2.6177801701763089e-03  1.8243598218151094e-02  -1.3278268819585356e-03  -4.1942933254104824e-03  -1.5354129217059569e-02  1.3889782847806505e-02  -9.1903079639863005e-03  3.7236901215089982e-03  8.4777651495595435e-03  -3.1388178978985675e-03  6.6302330799541034e-03  -2.5184736791952550e-03  -3.6083901123702597e-03  2.3549892842016987e-03  -7.9602360634643543e-03  1.1439932305313903e-02  -3.3951021770691988e-03  1.0693917123012407e-02  2.1487148902353498e-03  8.4850028994214923e-03  -3.0092278900826024e-03  -2.3821600265977192e-03  -3.0431787914110011e-03  -2.7272618292372287e-03  -5.5572306117534749e-03  -1.5102032056982271e-02  1.0724291677359846e-03  9.3158565661261260e-03  8.6291079527394312e-03  -8.9032229430910173e-03  -1.2076337752196740e-02  8.8280117629473565e-03  3.7359983335022379e-03  -1.6773045581281937e-03  -2.3854642747600922e-03  5.7859442098911822e-04  1.5294651434759592e-03  -3.1823600526920487e-02  1.6900564072697851e-02  2.5821440323667687e-03  3.3180301381026856e-04  -5.1948355875689146e-03  -8.2077193174041434e-03  1.9485759379512632e-03  -1.4819988922960891e-02  1.3933463543068451e-02  2.1370763206389910e-03  6.6363848122176581e-04  6.1361307064010983e-03  -4.7928270186413918e-03  1.8664206504132397e-03  -2.1247113449458823e-04  -7.1132843928423933e-03  3.4731395014050625e-03  -5.9291279582719221e-03  -1.0287178728896835e-02  2.1119571685609673e-02  3.4029371638384610e-03  -2.1989456025040146e-04  -8.5823242667926753e-03  4.5799032063668348e-03  -3.7586285775903800e-03  2.4418355906375097e-03  -9.0410355316539338e-03  1.9052537365592103e-03  -1.1974962428984732e-02  3.9287736263398272e-03  9.9741759541444649e-03  -3.9414088275949045e-03  -3.2033191071826586e-04  -2.1734953299155325e-03  -3.6837133922652671e-03  1.1102126803934781e-03  -5.4440893957283000e-03  -1.8382900450451062e-02  1.0400321022195154e-02  1.1790408615391790e-02  1.0648038759838047e-02  6.7662083768113947e-03  -6.0932162988208097e-04  4.5532771007920801e-03  1.3047799789364348e-03  -6.0439055394757362e-03  9.4721551348656945e-03  -6.4661875810780372e-03  3.5172034197534078e-03  -5.6315308661636634e-03  1.2515571273409786e-02  -8.8639024207314947e-03  -7.5885489164296809e-03  -1.2688923340142171e-02  1.2322340018794778e-02  -9.6729623575539068e-03  -3.7849202692085540e-02  6.3870837482119568e-03  -5.7720075855490216e-03  -1.1127839492398947e-02  -4.3243306256745953e-02  -1.5845980706898903e-02  5.9786946668593877e-03  -1.8015639729454302e-02  -4.4224127601362510e-02  -4.2383491577630009e-02  8.2328083692768013e-03  -1.3100594712402233e-02  -6.3558817617049373e-02  -1.5986916228497645e-02  -4.2037603746692416e-02  1.1497261863802908e-03  8.7488572674287676e-04  -1.7976210979800265e-02  -3.4756329369794246e-02  -1.7865206879570390e-02  -2.5957385634628918e-02  -3.0830636377195401e-02  6.9100552478919518e-03  -5.2802240237566293e-02  -2.1030066623330377e-02  1.8862805021202574e-02  -4.3865835330986008e-02  -4.6556226283978016e-03  -1.8330403151978043e-02  -3.1277444966924695e-02  -1.7026503912929061e-03  -4.2696643523792009e-02  -1.4642953434256031e-02  -2.1103601673230356e-02  -2.4605332039731607e-02  -6.3080826402053683e-03  -1.3427181360420136e-02  -5.8658762482497517e-02  6.0744837221598279e-03  -2.1402374676642879e-02  -2.9309053474643638e-02  -1.6695054290357558e-02  -1.9732770691239729e-02  -1.3526627893084260e-02  -4.6274993004885530e-02  -3.2901621627812606e-02  -4.2510623767650794e-02  -1.3723475052893426e-03  -1.6138161453259373e-02  -4.3324508928383569e-03  -1.7044403182027757e-02  -5.6802808139387172e-02  -3.0694434243893315e-02  -1.8186736055601151e-02  1.2162118112794783e-02  -3.5360838023257048e-02  -1.5878053032082989e-02  -1.6693860344396017e-02  -5.3934153824838571e-02  5.1673800857638024e-03  -4.4230674767557536e-02  1.0165280643209273e-02  -1.4789538969795082e-02  -7.2752006389257490e-03  -1.4807492951136899e-02  -4.0457427267590669e-02  -2.8480093276779597e-02  -2.2238060974947359e-02  -1.8414897940138918e-02  -5.0096668400875285e-03  -2.8114639772882174e-04  -5.7400542775921930e-02  1.7814687507536502e-02  -3.0548034930233916e-02  -2.8188568231833230e-02  -5.6277383341313124e-02  1.2056899219491171e-03  -2.8898044460760185e-02  5.0948493218547324e-03  -8.1322344139748391e-03  4.0385812132275028e-03  -3.8330164603921330e-02  -2.9383914716549081e-03  -1.5155519506115584e-02  -4.1332564801559220e-03  -3.0093279858093128e-02  -9.9608050589439449e-03  -1.5403998529625363e-02  -2.2716803643591434e-02  -4.8343780231647386e-03  -2.2993848805503769e-02  -3.2539913484506716e-02  -2.0126468657950349e-02  1.3052352419146365e-02  -3.9996575890915180e-03  -4.0247008075134545e-02  -1.9214951769189265e-02  -2.1125477896359615e-02  6.1535864241025139e-04  -4.6542153024472033e-03  8.8824443409807052e-03  2.9117116613805298e-03  1.7550831901875424e-02  4.2374284262578339e-04  -1.8094210179962829e-02  1.3774020733126975e-03  -1.3574530187946420e-02  -6.9394209863395803e-03  -1.9113340241392229e-03  -3.4918931262969484e-03  -5.1102975914229260e-03  3.3306345354790958e-03  -3.5103237891639357e-03  6.8919758978775508e-03  1.0722826831050353e-02  1.1633188458299857e-03  7.8829399431132460e-04  3.8618502122659362e-03  -3.0374270022724072e-03  -1.6681879347573575e-03  -4.1269186772620670e-03  -2.4737335845680958e-05  9.4581167743818771e-03  -4.1890629299962115e-03  1.0582007859796416e-03  -5.3104145567726040e-03  -1.2481166969236552e-02  -7.3243469783976591e-04  -1.3171808549467147e-02  -6.0283713694412773e-03  3.7867038706768559e-03  1.0060728869650473e-02  -6.0630552619116169e-03  4.8947830294457061e-03  7.1209955095678096e-04  7.2169883706246921e-03  -1.8809568549854345e-03  4.4809106656957176e-03  -1.8356132764679003e-05  -2.6558603857530119e-03  6.5337413652468476e-03  1.1041265650647876e-02  -2.5471610583964852e-03  7.2286901656665511e-03  -1.1320501968953900e-02  -2.8916039859866322e-03  -2.9131420969599558e-03  5.2024666521941097e-03  -1.9938745290240579e-02  -1.8576342757155088e-02  1.2454788008746684e-02  3.8573621483833212e-02  -2.2875729777977666e-02  1.7311370957436636e-02  1.0739473368533469e-02  9.4079187516494991e-03  -4.0801695340613722e-03  8.7274014046236931e-03  2.9547669559471971e-02  -1.7080864883430878e-02  -4.2956105568028053e-03  3.0280872451059456e-03  3.4763156753104779e-03  -3.5691803575979199e-03  -5.0469102309456579e-04  8.9972169705152347e-03  -3.7441996198224912e-03  5.3664155928944933e-03  -1.0644474128325319e-03  1.4870332069507792e-03  -6.4288535212644968e-03  1.3993321991710392e-02  -1.1549254006816962e-02  -7.5618308755728237e-03  6.7634354749498190e-03  -2.4827324638818553e-03  -7.2651906138428129e-03  9.4359536395080875e-03  2.8166987007206086e-03  -5.5175269005598151e-03  -3.8937368287410077e-03  7.6028970508579385e-03  -7.9795174001488969e-03  6.4433473006075771e-04  -4.7973873430771086e-03  -3.8679875467119043e-03  -6.7834133013081120e-04  -5.9321646473732012e-03  -2.0111561528912900e-03  -1.3707413110774204e-04  3.7344584522940216e-03  9.9791143687442876e-03  2.8398573700811426e-04  -2.0156136191035851e-03  3.3264040136614472e-03  7.8200648982541619e-03  3.2557846286768201e-03  -2.7959686098829291e-03  3.3444548214376195e-02  -6.3335740954978100e-03  -1.5082640301014706e-02  7.3073902442674886e-03  -7.8989769099802633e-03  3.6225323661693088e-03  -1.0285939368581369e-02  -1.4520898070442720e-02  1.0468244862364287e-03  1.0608250887651444e-03  7.6395952358126497e-03  1.4575215454167054e-02  -1.6446230991779443e-03  6.2562514433983597e-03  -6.9715718772145512e-03  2.6499608778147565e-02  8.2082378733277488e-03  8.6955612905051140e-03  -1.7662798058145348e-03  2.4283878104544303e-03  1.6186069640183778e-02  -1.4866798835255546e-02  1.5610735429336817e-02  1.0178612322236805e-02  1.5051292842218521e-02  -3.3211016183599313e-03  6.3202917487012508e-03  6.9425155271554484e-03  6.5341517413542325e-03  -9.9445686332720797e-03  4.3499046465419683e-03  -4.2708807488355616e-03  1.3910367053781323e-02  1.0928673584565734e-02  2.0450810900709143e-02  9.3932084926813177e-03  4.7698872701766063e-03  -2.1422175741571896e-04  -7.9541532478228706e-04  -8.9638950012427936e-03  6.2136095221411300e-03  -6.8715252436796137e-03  3.0365584602231720e-03  -6.2668998007631687e-03  -1.1187846684919681e-02  4.5581384143762287e-04  4.6559743791943680e-03  -8.7347535089537139e-03  2.5115167470360421e-04  -2.3995476584469195e-03  -8.2597328951402585e-04  3.8223888230734708e-03  5.2765919702126513e-03  -8.7581028946878831e-03  -6.3983729635490785e-03  1.0684875611696710e-03  4.2849997181659905e-03  2.7571601625557860e-04  1.9152309280440086e-03  -4.3102747984776245e-03  -1.6162994572706597e-02  8.7256931018366464e-03  8.3105513666196940e-03  4.1771244618172077e-03  -5.0654421357926808e-03  -3.6274324146515660e-03  -1.6547105187715715e-03  -7.7663862564474875e-03  1.0889341527532634e-02  -3.3097335577905876e-03  5.1701399786188316e-03  -6.7643657660401441e-04  -9.9512978296630028e-03  -1.9203816981143535e-03  1.3874108428278588e-02  -4.6513500028552631e-04  4.9285386113186455e-03  -8.8092707069789694e-03  6.5375108617789762e-03  -6.1458587537033529e-03  5.5083397691774493e-03  -1.9371748024433360e-03  1.1537435538255528e-04  9.5575814815252778e-05  8.5069467739378665e-03  -2.8474925907925456e-03  -2.1221735733601775e-02  -7.6149972879922584e-04  1.4100924905322656e-02  -9.0629168017627802e-03  -9.5779907776985668e-03  -3.5391995443837072e-03  -3.3371390910587051e-02  -1.3578079472762638e-02  6.1875318593107870e-03  -7.5131002384202956e-03  -6.8607948133737745e-03  -9.9958182409624688e-03  1.0648047888941324e-02  1.4857508415015257e-03  -1.8434013757662904e-02  -4.6236032236888257e-03  2.8799706831716542e-03  -1.9818868173091413e-03  6.0200292049167811e-03  -9.3572635404556587e-03  -1.1456221739095773e-03  -1.1436461781615717e-02  -6.8257538038082634e-03  1.4433948742004580e-02  1.4611473638179620e-03  -5.1182735429190253e-03  3.3536817125830970e-03  -1.0290565465723366e-02  1.0354848117676049e-03  -1.7127663907413434e-02  8.4369366095175136e-03  4.4990835352579882e-03  -5.4003520936119036e-03  -2.5606049850518983e-03  3.0788201501528618e-03  4.8327767808737879e-03  4.4467853529700637e-03  -9.0083570197150697e-03  -3.9576082983163157e-03  -5.7246650640974020e-04  -5.0922113876388386e-05  1.2343097939534932e-02  -3.0604221075754071e-03  -8.8538713028459923e-03  -6.6769991555316920e-04  6.8704984920667242e-03  -1.5849024559258913e-02  -8.8252393619465130e-03  -5.3611318846369192e-03  -4.3221386156067848e-03  1.1240633689081183e-02  2.9679464895802526e-03  7.7049845291674007e-03  6.5675409462002269e-03  3.2479475293166131e-02  -6.8300009201954521e-03  2.2519509562843369e-02  8.6223627762809646e-03  3.5697179226987209e-02  1.0957349097769865e-02  -2.6321102637237963e-03  3.5232737482212319e-02  -1.6503237886572250e-02  -4.9794331913919215e-03  6.8768450504793736e-03  2.0328104678327351e-03  -1.2368987156205196e-03  8.1868734461128332e-03  1.1070645954625846e-02  5.2854021868207366e-03  -1.1085949608580631e-03  1.0810011250306414e-02  1.4746553372903459e-02  -1.1658918152398157e-02  3.5593430885907571e-03  9.8796746836601525e-03  -3.2349040795881818e-03  -2.9844567785680568e-02  -1.1608858231659781e-02  -1.1095257726715270e-02  -1.7292203419006568e-02  -5.0138401979819142e-03  2.0676890187822226e-02  7.3868663246086407e-04  2.3708400554659586e-03  1.2164479276077757e-02  2.3839748968349727e-03  -5.8692256596511406e-03  5.9897347642946927e-03  2.6216056469420105e-02  -2.9834739256640893e-04  7.0534286227887559e-03  8.7779066759380506e-03  3.6132073669998157e-03  6.3982687023239476e-03  3.0419267809151194e-03  8.5975334976550015e-03  -9.1459611993258989e-03  1.2342649324020235e-02  9.6981529419581033e-03  6.9179173857397769e-03  5.4880679521036330e-03  2.8286713894220709e-02  -5.0648419445714242e-03  -2.0656578299893504e-02  8.7246404738514534e-03  -4.4840078963544559e-03  1.5513372040844704e-02  1.1719580054265759e-02  3.2273165654599411e-03  -6.3129898303711119e-03  -1.7045401863796982e-03  1.2424643155596611e-03  4.1928366124724392e-04  -1.0627308794453761e-03  4.7409039298851336e-03  1.1314219436270442e-02  2.7439393804548967e-03  1.9165799993595386e-03  -7.6115705313108189e-03  -1.4742077147453710e-02  -1.3501738740021964e-03  -1.6797504807653237e-02  1.0361431903554215e-02  -1.1902212784380011e-02  -1.7190339567593570e-05  9.3359470661481883e-03  -7.4688098199869558e-03  -1.0127940125143673e-02  2.1064056596237362e-04  -1.2543805905287699e-02  9.7539473672143551e-03  1.0410824829162313e-03  1.4097491366273023e-02  5.6411857112931381e-03  -4.0793099283517396e-05  -3.8663489641065159e-03  -4.2447054062016275e-03  -1.6831845850166731e-04  2.5531121330624396e-02  -9.4273076955693751e-04  6.6341324004034015e-03  4.2026951885438838e-03  -4.3073375980017840e-03  -7.9415508675992844e-03  -3.7577366755314305e-03  1.7391662819670594e-02  9.8890152586412691e-03  7.9772643741881613e-04  3.4022845799313384e-03  -6.4901206831528965e-03  -1.5748911272513363e-03  -2.4378647635381148e-03  5.7713959416634923e-03  6.4591829815191981e-04  -3.8189191905942414e-04  1.1706750342009246e-03  5.6797624588011660e-03  -1.2676570108315786e-03  -1.3667070297329845e-03  1.3756386397071345e-03  -5.7729419726089016e-03  -5.1221932360425047e-03  -7.2736619176663967e-03  -2.7587524322385593e-03  -3.3548639758158611e-04  -2.3765441840893253e-03  1.7461167310276872e-03  -1.7310300561694393e-02  4.4478511021787794e-03  -4.0796924262018458e-06  -1.5623496939124355e-03  -3.5333024137815684e-03  3.2393902350784614e-03  2.4050921315495143e-02  1.4259030855011511e-03  3.1280616453508879e-03  2.6658340936585099e-03  1.7103961651357993e-02  1.1171800095696929e-02  -3.9143734808508780e-02  -5.0658953572693954e-03  7.2811713952832995e-03  -7.3592207703505547e-03  -9.1287068188172591e-03  -8.0662456506927251e-03  3.6760393252605327e-04  -5.0324219718888763e-03  -1.6501839346685164e-03  6.1155597327470805e-03  7.8524327544009943e-03  -1.8981030234505849e-04  2.3557130072796827e-03  4.9431009634566441e-03  -9.4606511707711184e-04  -5.6227520821007201e-04  -1.8450767664475721e-02  -9.8927113180638233e-04  1.5627510114158812e-02  1.0270940861839216e-02  2.2808414207265287e-03  1.2733214484168634e-02  1.1078212441332220e-02  -5.2384110890186511e-03  -4.8957634593732530e-03  -1.1702832059337072e-02  -1.4928030869841281e-04  5.3204485051250089e-03  2.2413059316567590e-03  4.9142228265897211e-04  1.8290120432048684e-03  1.3827878777651532e-03  4.0274252277738105e-03  2.3502035773578680e-03  6.5426979109554102e-03  1.0645274129061204e-02  9.4868046729114520e-03  8.5833753103812232e-03  1.2648087616525759e-03  1.0340757395738382e-02  -1.4144402428807748e-03  -8.6875215758116138e-03  7.4279301318370015e-03  1.4181376382751026e-02  -5.6056496239292163e-03  4.0376691207279101e-03  3.5116011943029787e-03  7.3586620797583338e-03  6.6090412857581996e-03  -2.3780150752741386e-02  7.6113034710089521e-03  -1.2052305613322344e-03  -1.3941170986671071e-03  -1.0642285727790234e-02  1.7857412331969122e-02  -6.8188221045356362e-04  -2.2618695875148850e-03  -5.3826124294247533e-04  -2.1063989669275070e-03  2.0057926268142864e-03  -3.2326149449658560e-03  1.2031949719280629e-03  -8.2612364012740519e-04  -1.3810241847352202e-03  1.0462832367476088e-02  3.3479699383072853e-03  4.3367914349636393e-03  -6.0882935970294905e-05  3.8579534997917244e-03  -6.7292639701519294e-03  1.2769342169859550e-02  -1.4043830661652741e-02  -6.6580551268329343e-03  -2.2022068230251667e-02  4.3288755324120626e-03  -1.6599667087598548e-02  -6.0545346759425757e-03  1.2792907785015276e-02  -4.8020660418875332e-03  -5.9501790348886526e-03  -2.0786162458452349e-03  3.0572814042300893e-03  -1.6633861894237011e-02  1.2083944777700759e-02  -4.1198275130407127e-03  -4.4921907078332903e-03  -5.9531500683366982e-04  4.1835096556731193e-03  -3.1262422764701423e-03  -1.4140134500107047e-03  -1.8491721152337125e-02  2.5356160207571439e-03  -1.7185376011990921e-02  -9.