<?xml version="1.0"?>
<VTKFile type="UnstructuredGrid"  version="0.1"  >
<UnstructuredGrid>
<Piece  NumberOfPoints="10909" NumberOfCells="21162">
<Points>
<DataArray  type="Float64"  NumberOfComponents="3"  format="ascii">-0.09999216720722226 0.001251597859899349 0  -0.09999216720722226 -0.001251597859899324 0  -0.09992951222712528 -0.003754009329879275 0  -0.09980424152647172 -0.006254068541813297 0  -0.09961643359974248 -0.008750208961396265 0  -0.0993662061271743 -0.01124086650983409 0  -0.09905371590102154 -0.01372448054389361 0  -0.09867915872731027 -0.01619949483379979 0  -0.09824276930314649 -0.01866435853836769 0  -0.09774482106965511 -0.02111752717675784 0  -0.09718562604064213 -0.02355746359624618 0  -0.09656553460708706 -0.0259826389354021 0  -0.0958849353175884 -0.02839153358207142 0  -0.09514425463489948 -0.03078263812556374 0  -0.09434395666870733 -0.03315445430244742 0  -0.09348454288482222 -0.03550549593535961 0  -0.09256655179095953 -0.03783428986424361 0  -0.09159055859931162 -0.04013937686942917 0  -0.09055717486612039 -0.04241931258597781 0  -0.08946704810847689 -0.04467266840872038 0  -0.08832086139858776 -0.04689803238741953 0  -0.08711933293576302 -0.04909401011149607 0  -0.08586321559639315 -0.051259225583765 0  -0.08455329646219767 -0.05339232208263388 0  -0.08319039632704039 -0.05549196301222316 0  -0.0817753691826212 -0.05755683273987554 0  -0.08030910168336558 -0.05958563742052986 0  -0.07879251259084807 -0.06157710580744316 0  -0.07722655219809717 -0.06352999004875236 0  -0.07561220173414296 -0.0654430664693768 0  -0.07395047274917997 -0.0673151363377717 0  -0.07224240648073096 -0.06914502661705209 0  -0.0704890732012087 -0.07093159070001633 0  -0.06869157154728435 -0.07267370912760898 0  -0.06685102783148329 -0.07437029029037232 0  -0.06496859533643848 -0.07602027111244807 0  -0.06304545359224527 -0.07762261771769907 0  -0.06108280763736874 -0.07917632607753537 0  -0.05908188726356842 -0.080680422640037 0  -0.05704394624531189 -0.08213396493998064 0  -0.05497026155416092 -0.08353604218938757 0  -0.05286213255862293 -0.08488577584822193 0  -0.05072088020996789 -0.08618232017488325 0  -0.04854784621452173 -0.08742486275614705 0  -0.04634439219295482 -0.08861262501622209 0  -0.0441118988270916 -0.08974486270460519 0  -0.0418517649947774 -0.09082086636242756 0  -0.0395654068933429 -0.09183996176700104 0  -0.03725425715221625 -0.09280151035428542 0  -0.0349197639352395 -0.09370490961901168 0  -0.03256339003325057 -0.09454959349221126 0  -0.03018661194749989 -0.09533503269591435 0  -0.02779091896447685 -0.09606073507479465 0  -0.0253778122227242 -0.09672624590455349 0  -0.02294880377222645 -0.09733114817684957 0  -0.02050541562696112 -0.0978750628605958 0  -0.01804917881120608 -0.09835764913945998 0  -0.01558163240020206 -0.09877860462541965 0  -0.01310432255576947 -0.09913766554823829 0  -0.01061880155748498 -0.09943460692074342 0  -0.008126626830025281 -0.09966924267980326 0  -0.00562935996728636 -0.09984142580291366 0  -0.003128565753890103 -0.09995104840032237 0  -0.0006258111846929931 -0.0999980417826325 0  0.001877335517092352 -0.09998237650384323 0  0.004379305882543121 -0.09990406237980078 0  0.006878532179827535 -0.09976314848204761 0  0.009373448396544122 -0.09955972310707441 0  0.01186249122098281 -0.09929391372099353 0  0.01434410102169454 -0.09896588687966891 0  0.0168167228247549 -0.09857584812435229 0  0.01927880728810846 -0.09812404185289136 0  0.02172881167238507 -0.09761075116659038 0  0.02416520080757896 -0.09703629769281898 0  0.02658644805498359 -0.09640104138348123 0  0.02899103626378299 -0.09570538028946973 0  0.03137745872169579 -0.09494975031124768 0  0.03374422009907978 -0.09413462492571403 0  0.03608983738590409 -0.0932605148895233 0  0.0384128408210011 -0.09232796791904624 0  0.04071177481301732 -0.0913375683471712 0  0.04298519885248568 -0.09028993675716174 0  0.04523168841444655 -0.08918572959380006 0  0.04744983585105387 -0.08802563875205931 0  0.0496382512736056 -0.08681039114356295 0  0.05179556342344641 -0.08554074824110286 0  0.05392042053119698 -0.08421750560150111 0  0.05601149116377094 -0.08284149236711523 0  0.05806746505864942 -0.08141357074629837 0  0.06008705394489031 -0.07993463547314045 0  0.062068992350357 -0.07840561324682899 0  0.06401203839466206 -0.0768274621509803 0  0.06591497456732821 -0.07520117105330526 0  0.0677766084906786 -0.07352775898598621 0  0.06959577366697992 -0.07180827450715208 0  0.07137133020936784 -0.07004379504385366 0  0.07310216555609947 -0.06823542621694852 0  0.07478719516768322 -0.06638430114832015 0  0.07642536320644966 -0.06449157975086556 0  0.07801564319813849 -0.06255844800169477 0  0.07955703867508632 -0.06058611719899883 0  0.08104858380061176 -0.05857582320305206 0  0.08248934397420797 -0.05652882566182319 0  0.0838784164171622 -0.05444640722168118 0  0.08521493073823577 -0.05232987272369083 0  0.08649804947905057 -0.05018054838600033 0  0.08772696863883907 -0.04799978097283517 0  0.0889009181782307 -0.04578893695061648 0  0.09001916250175765 -0.04354940163173486 0  0.09108100091877785 -0.04128257830651554 0  0.09208576808252723 -0.03898988736391795 0  0.0930328344070252 -0.03667276540152144 0  0.09392160646157242 -0.03433266432535521 0  0.09475152734259386 -0.0319710504401355 0  0.09552207702259409 -0.02958940353048034 0  0.09623277267600569 -0.02718921593367883 0  0.09688316898172744 -0.02477199160459344 0  0.0974728584021618 -0.02233924517328454 0  0.09800147143857771 -0.01989250099594415 0  0.09846867686263801 -0.0174332921997361 0  0.09887418192394669 -0.01496315972214073 0  0.09921773253348604 -0.01248365134540491 0  0.09949911342282847 -0.009996320726703157 0  0.09971814827902359 -0.007502726424618317 0  0.09987469985507552 -0.005004430922550236 0  0.09996867005594191 -0.002502999649665144 0  0.1 0 0  0.09996867005594191 0.002502999649665096 0  0.09987469985507554 0.005004430922550164 0  0.09971814827902359 0.007502726424618309 0  0.09949911342282848 0.009996320726703126 0  0.09921773253348604 0.01248365134540486 0  0.09887418192394669 0.01496315972214074 0  0.09846867686263801 0.01743329219973608 0  0.09800147143857772 0.01989250099594411 0  0.0974728584021618 0.02233924517328456 0  0.09688316898172744 0.02477199160459344 0  0.09623277267600572 0.02718921593367872 0  0.0955220770225941 0.0295894035304803 0  0.09475152734259389 0.03197105044013543 0  0.09392160646157242 0.0343326643253552 0  0.09303283440702523 0.0366727654015214 0  0.09208576808252726 0.0389898873639179 0  0.09108100091877785 0.04128257830651555 0  0.09001916250175765 0.04354940163173485 0  0.08890091817823072 0.04578893695061644 0  0.08772696863883905 0.04799978097283519 0  0.08649804947905056 0.05018054838600035 0  0.08521493073823583 0.05232987272369073 0  0.08387841641716223 0.05444640722168113 0  0.082489343974208 0.05652882566182314 0  0.08104858380061178 0.05857582320305206 0  0.07955703867508633 0.06058611719899881 0  0.07801564319813853 0.06255844800169473 0  0.07642536320644966 0.06449157975086556 0  0.07478719516768322 0.06638430114832015 0  0.0731021655560995 0.06823542621694849 0  0.07137133020936781 0.07004379504385369 0  0.0695957736669799 0.07180827450715209 0  0.06777660849067867 0.07352775898598612 0  0.06591497456732824 0.07520117105330523 0  0.06401203839466212 0.07682746215098026 0  0.06206899235035701 0.07840561324682899 0  0.06008705394489031 0.07993463547314045 0  0.05806746505864946 0.08141357074629835 0  0.05601149116377094 0.08284149236711523 0  0.05392042053119699 0.08421750560150111 0  0.05179556342344643 0.08554074824110285 0  0.04963825127360558 0.08681039114356297 0  0.04744983585105388 0.08802563875205929 0  0.04523168841444657 0.08918572959380004 0  0.04298519885248572 0.09028993675716171 0  0.04071177481301738 0.09133756834717116 0  0.0384128408210011 0.09232796791904624 0  0.03608983738590412 0.0932605148895233 0  0.03374422009907983 0.09413462492571401 0  0.03137745872169577 0.09494975031124768 0  0.02899103626378299 0.09570538028946973 0  0.02658644805498361 0.09640104138348121 0  0.02416520080757892 0.09703629769281899 0  0.02172881167238516 0.09761075116659035 0  0.01927880728810846 0.09812404185289136 0  0.01681672282475495 0.09857584812435227 0  0.01434410102169461 0.0989658868796689 0  0.01186249122098281 0.09929391372099353 0  0.009373448396544148 0.09955972310707439 0  0.006878532179827604 0.09976314848204761 0  0.004379305882543101 0.09990406237980078 0  0.001877335517092354 0.09998237650384323 0  -0.0006258111846929686 0.0999980417826325 0  -0.003128565753890144 0.09995104840032237 0  -0.005629359967286269 0.09984142580291366 0  -0.008126626830025279 0.09966924267980326 0  -0.01061880155748493 0.09943460692074342 0  -0.01310432255576943 0.09913766554823829 0  -0.01558163240020205 0.09877860462541965 0  -0.01804917881120606 0.09835764913945998 0  -0.02050541562696107 0.09787506286059582 0  -0.02294880377222647 0.09733114817684957 0  -0.0253778122227242 0.09672624590455349 0  -0.02779091896447682 0.09606073507479465 0  -0.03018661194749985 0.09533503269591437 0  -0.03256339003325048 0.0945495934922113 0  -0.03491976393523949 0.09370490961901168 0  -0.0372542571522162 0.09280151035428545 0  -0.03956540689334286 0.09183996176700107 0  -0.04185176499477741 0.09082086636242755 0  -0.04411189882709158 0.0897448627046052 0  -0.04634439219295476 0.08861262501622214 0  -0.04854784621452175 0.08742486275614705 0  -0.0507208802099679 0.08618232017488325 0  -0.05286213255862291 0.08488577584822195 0  -0.05497026155416086 0.08353604218938761 0  -0.05704394624531183 0.08213396493998068 0  -0.0590818872635684 0.080680422640037 0  -0.06108280763736872 0.07917632607753539 0  -0.06304545359224521 0.07762261771769911 0  -0.06496859533643849 0.07602027111244805 0  -0.06685102783148326 0.07437029029037233 0  -0.06869157154728432 0.072673709127609 0  -0.07048907320120865 0.07093159070001638 0  -0.07224240648073095 0.06914502661705212 0  -0.07395047274917996 0.06731513633777172 0  -0.07561220173414293 0.0654
[...]
<PointData  Scalars="displacement-0"> 
<DataArray  type="Float64"  Name="displacement-0"  format="ascii">7.9246691288360233e-02  7.9256604355069593e-02  7.9247889831651180e-02  7.9245034211485307e-02  7.9223343737317778e-02  7.9225864729494958e-02  7.9241076723737355e-02  7.9241740910554387e-02  7.9258823436090586e-02  7.9260236836652467e-02  7.9264224809140291e-02  7.9249019428286438e-02  7.9261123049275045e-02  7.9247741971391047e-02  7.9243477346890204e-02  7.9234422946844865e-02  7.9228346267345040e-02  7.9236136136953905e-02  7.9246335464310938e-02  7.9245597724231662e-02  7.9243212014037473e-02  7.9239298584386664e-02  7.9228713936507336e-02  7.9238510132444609e-02  7.9249000464087296e-02  7.9263631349867594e-02  7.9239089365683565e-02  7.9262569689305784e-02  7.9269154820504506e-02  7.9267799732873179e-02  7.9256463657676648e-02  7.9240751196308731e-02  7.9224552302506732e-02  7.9220582599984254e-02  7.9241797775387174e-02  7.9246271687289760e-02  7.9247682522852608e-02  7.9245918525921735e-02  7.9235070052088963e-02  7.9248653669987595e-02  7.9257163557205509e-02  7.9259190400243720e-02  7.9254703556001074e-02  7.9237854442592112e-02  7.9243404252741914e-02  7.9241756463375432e-02  7.9229416442486197e-02  7.9235304786212546e-02  7.9256832215522988e-02  7.9257628636613855e-02  7.9239437684573685e-02  7.9242028509664011e-02  7.9244856721153237e-02  7.9256035988128359e-02  7.9252603447261649e-02  7.9250172170791625e-02  7.9243654006475164e-02  7.9246560851951961e-02  7.9257281955634279e-02  7.9251610388240648e-02  7.9224733212285764e-02  7.9233001188702717e-02  7.9225669449330141e-02  7.9226545449208735e-02  7.9238311240726250e-02  7.9222358377774027e-02  7.9230895433653803e-02  7.9249731630430476e-02  7.9267825551057616e-02  7.9267825557867599e-02  7.9255862322087048e-02  7.9263542700977352e-02  7.9270000164535670e-02  7.9271475388623849e-02  7.9261547563447776e-02  7.9247317120919883e-02  7.9220742566513708e-02  7.9189390111252478e-02  7.9222446448938236e-02  7.9244791427575345e-02  7.9242208980845538e-02  7.9252807809794976e-02  7.9258528192591993e-02  7.9237126316292594e-02  7.9244461664551388e-02  7.9248056227689129e-02  7.9259897456721656e-02  7.9264978727517324e-02  7.9268474849183826e-02  7.9275774341862934e-02  7.9256827289600831e-02  7.9232583259704947e-02  7.9205630710468641e-02  7.9217828496845971e-02  7.9240734995199472e-02  7.9246266095195278e-02  7.9236760483757093e-02  7.9214656459393781e-02  7.9247599767052229e-02  7.9262006499142390e-02  7.9264537914670530e-02  7.9266577448658768e-02  7.9260231337925688e-02  7.9242720211167336e-02  7.9243222061943008e-02  7.9210032772378022e-02  7.9200590612198557e-02  7.9233550922312754e-02  7.9253746176944806e-02  7.9263387284153705e-02  7.9280876905512887e-02  7.9282710708030779e-02  7.9265400001394648e-02  7.9248527326749904e-02  7.9233092562527724e-02  7.9221771112370387e-02  7.9221178993683555e-02  7.9227896153895014e-02  7.9234368846593045e-02  7.9237654698510365e-02  7.9271696927914637e-02  7.9281051069240868e-02  7.9256956228325043e-02  7.9251797047716552e-02  7.9241915918545611e-02  7.9240532162803065e-02  7.9225560497430930e-02  7.9233003464481880e-02  7.9248291910370819e-02  7.9257222675180802e-02  7.9230766767156804e-02  7.9238624441258801e-02  7.9231993804471920e-02  7.9234292212609150e-02  7.9238472794446638e-02  7.9249824355523468e-02  7.9263197840371336e-02  7.9263988730990151e-02  7.9256206523469444e-02  7.9246186007965791e-02  7.9245139692146555e-02  7.9241719627241941e-02  7.9246694584071672e-02  7.9242758659722745e-02  7.9254258877783132e-02  7.9260692152676310e-02  7.9250925039404715e-02  7.9241777825315080e-02  7.9225115642090574e-02  7.9231723401568865e-02  7.9244198132348384e-02  7.9249431521202132e-02  7.9254867078547911e-02  7.9243797582260217e-02  7.9235399868135617e-02  7.9233550573552969e-02  7.9227610617375585e-02  7.9233752852694822e-02  7.9241293954447845e-02  7.9242176251871979e-02  7.9261042031697870e-02  7.9271986006007558e-02  7.9283266813164194e-02  7.9275318959188587e-02  7.9262890941015005e-02  7.9254967567837412e-02  7.9251214704912892e-02  7.9242117600232281e-02  7.9214903342337939e-02  7.9227147447858429e-02  7.9231626535045716e-02  7.9234094438862146e-02  7.9244343400307199e-02  7.9241397060583141e-02  7.9230198585051509e-02  7.9225524910299397e-02  7.9226590471595554e-02  7.9231916021875279e-02  7.9250698994269134e-02  7.9264830993797858e-02  7.9265798920477110e-02  7.9277644829358437e-02  7.9279884733910747e-02  7.9274248005175296e-02  7.9247808326249711e-02  7.9238536073074739e-02  7.9209846550560833e-02  7.9189081793587066e-02  7.9219492702674615e-02  7.9240129848224497e-02  7.9255913874082748e-02  7.9250738801668330e-02  7.9249099702782141e-02  7.9257050731911666e-02  7.9256505891814447e-02  7.9246412577381353e-02  7.9247815586376794e-02  7.9263657424740799e-02  7.9250406064138246e-02  7.9245144160903253e-02  7.9255440099471067e-02  7.9258549231128655e-02  7.9262899450525379e-02  7.9247120749697864e-02  7.9236739788079227e-02  7.9216655183233869e-02  7.9223970039524499e-02  7.9241591189918401e-02  7.9244325322210804e-02  7.9255486422353652e-02  7.9253808088943500e-02  7.9239459026486506e-02  7.9246113600530271e-02  7.9247081058749752e-02  7.9241745900103286e-02  7.9232217276546404e-02  7.9232641851868860e-02  7.9231618088496894e-02  7.9248183989628226e-02  7.9246211608670389e-02  7.9261135053011314e-02  7.9250577564190003e-02  7.9245600741234087e-02  7.9246864301571809e-02  7.9244170812918888e-02  7.9232383836482331e-02  7.9244894659657755e-02  7.9246579189792679e-02  7.9264418468978540e-02  7.9279255619379319e-02  7.9265140054360167e-02  7.9245335817961213e-02  7.9239426326227796e-02  7.9245625541163586e-02  7.9240925215572924e-02  7.9212424207923654e-02  7.9196785102940842e-02  7.9226056594636537e-02  7.9227682354684595e-02  7.9260054702579380e-02  7.9251816222784849e-02  7.9271623394400831e-02  7.9265931593330397e-02  7.9264142041250721e-02  7.9261637927427964e-02  7.9256645747768292e-02  7.9238631641640925e-02  7.9234006942921334e-02  7.9243055635970755e-02  7.9230901566233539e-02  7.9229966780075725e-02  0.0000000000000000e+00  0.0000000000000000e+00  0.0000000000000000e+00  0.0000000000000000e+00  0.0000000000000000e+00  0.0000000000000000e+00  0.0000000000000000e+00  0.0000000000000000e+00  0.0000000000000000e+00  0.0000000000000000e+00  0.0000000000000000e+00  0.0000000000000000e+00  0.0000000000000000e+00  0.0000000000000000e+00  0.0000000000000000e+00  0.0000000000000000e+00  0.0000000000000000e+00  0.0000000000000000e+00  0.0000000000000000e+00  0.0000000000000000e+00  0.0000000000000000e+00  0.0000000000000000e+00  0.0000000000000000e+00  0.0000000000000000e+00  0.0000000000000000e+00  0.0000000000000000e+00  0.0000000000000000e+00  0.0000000000000000e+00  0.0000000000000000e+00  0.0000000000000000e+00  0.0000000000000000e+00  0.0000000000000000e+00  0.0000000000000000e+00  0.0000000000000000e+00  0.0000000000000000e+00  0.0000000000000000e+00  0.0000000000000000e+00  0.0000000000000000e+00  0.0000000000000000e+00  0.0000000000000000e+00  0.0000000000000000e+00  0.0000000000000000e+00  0.0000000000000000e+00  0.0000000000000000e+00  0.0000000000000000e+00  0.0000000000000000e+00  0.0000000000000000e+00  0.0000000000000000e+00  0.0000000000000000e+00  0.0000000000000000e+00  0.0000000000000000e+00  0.0000000000000000e+00  0.0000000000000000e+00  0.0000000000000000e+00  0.0000000000000000e+00  0.0000000000000000e+00  0.0000000000000000e+00  0.0000000000000000e+00  0.0000000000000000e+00  0.0000000000000000e+00  0.0000000000000000e+00  0.0000000000000000e+00  0.0000000000000000e+00  0.0000000000000000e+00  0.0000000000000000e+00  0.0000000000000000e+00  0.0000000000000000e+00  0.0000000000000000e+00  0.0000000000000000e+00  0.0000000000000000e+00  0.0000000000000000e+00  0.0000000000000000e+00  0.0000000000000000e+00  0.0000000000000000e+00  0.0000000000000000e+00  0.0000000000000000e+00  0.0000000000000000e+00  0.0000000000000000e+00  0.0000000000000000e+00  0.0000000000000000e+00  0.0000000000000000e+00  0.0000000000000000e+00  0.0000000000000000e+00  0.0000000000000000e+00  0.0000000000000000e+00  0.0000000000000000e+00  0.0000000000000000e+00  0.0000000000000000e+00  0.0000000000000000e+00  0.0000000000000000e+00  0.0000000000000000e+00  0.0000000000000000e+00  0.0000000000000000e+00  0.0000000000000000e+00  0.0000000000000000e+00  0.0000000000000000e+00  0.0000000000000000e+00  0.0000000000000000e+00  0.0000000000000000e+00  0.0000000000000000e+00  0.0000000000000000e+00  4.5470380756051823e-02  4.5471890918468483e-02  4.5446809891627582e-02  4.5469169573332670e-02  4.5448846378974825e-02  4.5462719951420434e-02  4.5457572547948806e-02  4.5463949664420938e-02  4.5447956885277301e-02  4.5474474320719972e-02  4.5483755216174725e-02  4.5451775577693303e-02  3.7179553907461006e-02  3.3207577258917986e-02  5.7394432611934422e-02  5.5147449297999515e-02  3.1415292688614996e-02  5.8259633475611985e-02  5.6434208294605083e-02  5.6431628826821519e-02  5.6455737072971940e-02  5.6419042631043977e-02  5.6430304470227031e-02  5.6560214497640426e-02  5.6458825888392919e-02  5.6597358036098895e-02  5.6721732492846365e-02  5.7818088078355367e-02  3.1720290551478389e-02  3.1689924654739007e-02  3.3218887917534752e-02  3.1667647222600140e-02  3.1680506603738549e-02  3.3692900894523932e-02  3.1591261728258983e-02  3.3482588054652804e-02  3.3946674323831784e-02  6.1219850999087701e-02  6.1981697566407652e-02  6.1967796376116456e-02  6.2670765124214628e-02  6.2338801479788167e-02  6.2670899531342708e-02  6.2378224347720578e-02  6.2369389918507143e-02  6.2379910634758402e-02  6.2338356421698646e-02  6.2377931855838710e-02  6.2430301631531938e-02  6.2734084498963449e-02  2.6676865527356326e-02  2.6707441169895745e-02  2.5609141162653181e-02  2.5642711248464848e-02  2.5633158166057230e-02  2.5599084741789981e-02  2.5745625432411236e-02  2.5631020407210228e-02  2.5828017609772665e-02  2.5493431640556851e-02  2.5406047419271122e-02  2.5892683245205977e-02  6.0834732519915481e-02  6.3006386128523995e-02  5.9209841144663496e-02  5.9205678326716207e-02  6.3799475327030689e-02  6.3820080963222114e-02  4.7860905838764650e-02  6.4451357030333070e-02  6.4399052537777973e-02  6.4792075490686288e-02  6.5089282701069132e-02  2.0742033381238534e-02  4.4454425747862812e-02  4.3926349728762241e-02  6.5357609635486896e-02  6.6171754874407795e-02  6.7046337507013692e-02  4.3318502855277968e-02  6.6978416446275543e-02  2.0308196299617519e-02  6.7161182610915693e-02  6.7172186574717824e-02  4.5031963050067021e-02  6.7655749890831937e-02  6.7642011732423998e-02  6.7634323403804819e-02  6.7593248360617406e-02  6.7319724879471410e-02  6.7356738639505351e-02  6.7634158171948469e-02  1.9183334979945305e-02  6.7445935229573900e-02  6.7704160428812138e-02  1.9199037159949299e-02  5.2300223198124177e-02  5.1362102566446223e-02  6.7809511730025945e-02  1.8752232520779746e-02  2.0562309969863583e-02  4.5943682868380999e-02  4.4969357964241993e-02  4.4741452387868266e-02  4.5570238896081958e-02  5.2446573108849294e-02  5.1488288278376669e-02  4.4873322247490015e-02  5.1478890330367892e-02  5.1701099945840656e-02  5.1508134559751513e-02  4.9977713012605528e-02  5.1487327704246112e-02  5.2125147978627259e-02  4.5773702013413416e-02  1.9262927023027603e-02  5.2498805883884059e-02  5.2755864506419163e-02  6.7621442206288782e-02  3.6594101145642002e-02  3.7719837324553293e-02  1.8628476794553060e-02  6.6294028207103062e-02  6.6301136886086923e-02  5.3606041291930147e-02  3.3236255752693830e-02  4.4615485409232672e-02  4.4593921556946595e-02  1.7931562085295803e-02  1.8277082587470662e-02  1.8252145665935034e-02  1.8259422485298635e-02  1.7801101208258618e-02  6.8577410483934745e-02  1.8197830979472637e-02  1.8610985873310060e-02  6.8598304147656525e-02  6.8611645381371503e-02  6.8847233764365051e-02  6.5936312221073740e-02  3.9540859936245155e-02  3.6356886049332036e-02  3.6560321209215554e-02  3.6274375419127466e-02  3.9538811137299630e-02  3.6505431599021351e-02  3.6325528747745653e-02  5.0896632353632607e-02  5.3672740611399657e-02  5.4378003546525298e-02  3.6558125892410753e-02  6.8735230169711850e-02  4.0638510083711540e-02  3.5998071309395155e-02  3.5241477695119559e-02  4.5761538358969289e-02  4.0875561846787985e-02  6.8475663141779983e-02  5.6008209808719026e-02  3.6304683239462419e-02  6.5650064707795178e-02  3.6013834861246208e-02  2.0881996563656205e-02  2.0935302173346194e-02  2.0879163759495604e-02  4.6076927558325688e-02  6.9090995289040169e-02  2.2276071780319127e-02  3.5167970736014645e-02  5.6035269158308129e-02  3.1692903482903850e-02  3.6065777529575731e-02  4.4588738666239330e-02  3.6334255955116343e-02  3.6318011895237111e-02  6.8845111124319167e-02  4.4819621970908989e-02  5.3362606315455072e-02  6.9275596622501323e-02  6.9592714411580117e-02  1.6675559319668284e-02  1.6453894017988246e-02  7.0110597389182044e-02  6.9409310303067781e-02  5.3922442252589783e-02  4.4177581440671736e-02  3.1702571569984184e-02  7.0268860497913560e-02  5.6398858808339350e-02  5.4749881936486326e-02  1.6245406382885050e-02  5.8546389351347559e-02  1.5897277146037787e-02  1.5790376402070667e-02  5.7967918187396064e-02  6.9845102004904083e-02  6.9725348742019605e-02  5.5369756516674556e-02  5.5202902576427959e-02  7.0504992397842595e-02  3.7631870953965210e-02  7.0414655600837567e-02  6.9777132477717857e-02  6.9692358132547039e-02  7.0451231900958408e-02  1.4765371809492204e-02  7.0626523632513344e-02  4.7304999774173823e-02  5.5447715421584401e-02  7.0398414484465988e-02  7.0576929929168211e-02  7.0713243895983421e-02  7.0763685159571349e-02  7.0418415549359681e-02  7.0742299921369045e-02  4.7101239067467583e-02  7.0453870629364965e-02  5.8922913049036289e-02  5.2306047930112919e-02  5.5682896884353787e-02  5.2849539689676851e-02  2.9751057658711805e-02  3.4386511076515164e-02  3.4036163725805799e-02  3.7410208154758970e-02  7.0398905871611697e-02  6.7619180966606116e-02  7.0574372721500273e-02  7.0585984537273813e-02  7.0573341054683367e-02  5.4309839626218478e-02  5.4388344750599435e-02  5.4377870644845436e-02  5.9759940421008788e-02  5.7406810635699440e-02  5.9838957287265633e-02  1.4743558553896670e-02  5.4371423805814702e-02  1.3942523453955412e-02  7.1190237840160958e-02  1.6147002197391791e-02  1.4224775155368657e-02  1.3861752035811453e-02  1.4127409693619272e-02  1.4090225834722586e-02  1.4037745570541748e-02  2.9448550045453610e-02  1.3799276681315592e-02  3.5946109749475694e-02  3.6041703639066974e-02  3.0866033169275831e-02  5.2700192172603764e-02  5.9314673523214553e-02  1.4090533968191869e-02  5.9390553704376590e-02  7.1146266867924801e-02  7.1162770973770328e-02  1.4524718244735463e-02  5.8023341798554492e-02  4.6292830961532666e-02  7.1535175733336967e-02  4.4118492980217978e-02  5.8492602858363794e-02  2.7187367910004624e-02  2.7354047515608847e-02  5.9600078075079312e-02  2.7752485202262388e-02  3.6390003210619568e-02  7.1863266796689765e-02  7.1095167904550463e-02  5.9306137954405619e-02  5.8659051140195345e-02  5.9299027439917863e-02  4.8162537327955730e-02  7.1914961307354280e-02  2.7703804414394885e-02  3.5193195711488615e-02  6.1957504581142318e-02  6.3043995495668984e-02  5.9252736711240865e-02  6.1455263798530196e-02  5.8599699417831538e-02  4.9860536946634379e-02  5.3776343417841897e-02  5.1205239890202967e-02  6.4986090515862474e-02  7.1928052611211074e-02  5.8256003855898554e-02  1.3140365397167262e-02  6.0417008780837229e-02  2.7612631082409481e-02  4.4437026254176948e-02  3.4996277184747890e-02  7.1771430781426823e-02  5.9472190681611352e-02  5.9176414770280371e-02  7.1247429188300612e-02  6.1286986731677685e-02  6.1319167936387822e-02  5.4522497943568234e-02  5.0985596954970847e-02  3.7080006786166471e-02  7.2033836132096796e-02  2.7532980422568000e-02  6.1153104013128137e-02  2.8085162562515292e-02  4.9234973852832917e-02  3.0852991315043210e-02  2.7287620548652639e-02  3.9306426873717708e-02  2.4547740550636497e-02  2.3561539608227825e-02  5.0292098277179252e-02  7.1830714906227638e-02  1.3179614619254577e-02  4.4849011531240657e-02  7.2291812329785307e-02  6.0273460625696107e-02  7.2317844798517911e-02  4.6026069336653687e-02  7.2294866113355324e-02  7.2292743007173588e-02  4.4875873727679400e-02  5.0035307863224618e-02  2.7493156214290757e-02  1.2504795088835247e-02  6.4002249536171507e-02  7.1715666073660381e-02  5.9765966123974557e-02  2.5546139672333150e-02  6.4084902306448491e-02  2.3771271949831498e-02  7.1869474754533591e-02  5.2586356858055523e-02  5.9857890622786555e-02  7.1841405309602632e-02  6.0661715510543959e-02  4.1417463305542197e-02  5.1770538363565197e-02  2.7128110693224218e-02  6.2267496639075971e-02  4.6962958806850821e-02  7.0187120424501884e-02  2.8607230670309982e-02  6.1671082630372437e-02  4.2465862062953892e-02  4.4377995885876223e-02  5.6989985208133628e-02  5.5385439658720947e-02  6.2911235375891716e-02  4.4616521618072759e-02  4.1185529591317681e-02  6.4057462454954653e-02  3.9575233312391850e-02  2.9760202979981682e-02  5.5285806859922411e-02  4.4181795415477378e-02  2.3999944732029578e-02  3.6623451856693467e-02  4.3644627352904308e-02  4.2663783334571957e-02  6.3713198949099867e-02  4.3867218963302056e-02  4.7039945963450208e-02  6.4690305931039666e-02  5.3827339611373683e-02  1.1343167940127409e-02  1.2405382326470909e-02  1.2070089316119605e-02  6.2844090612026490e-02  1.1306192095156873e-02  3.8116795993082861e-02  6.4177421194210355e-02  1.2617541112856023e-02  4.6256293041207333e-02  6.4592584003518735e-02  7.2471273237356998e-02  6.4506727957812690e-02  4.9987660988027066e-02  7.2625501535143383e-02  5.2930628521483961e-02  1.1111490325463694e-02  3.0975508202316593e-02  5.1883454626862689e-02  4.2605070421517122e-02  2.8415900955349738e-02  7.3028690831256848e-02  2.9592074880003986e-02  2.2636577175971732e-02  1.1206529264141429e-02  4.3651116337903743e-02  7.2686865860436850e-02  6.9835959554527496e-02  7.2927833401760261e-02  7.2930305457990771e-02  3.9475058525458927e-02  7.2371851047660959e-02  7.2805031293740996e-02  5.1863091089036958e-02  4.9631614049871903e-02  5.5304732459557943e-02  6.2175237881448582e-02  3.8435048418939778e-02  1.1246969884620411e-02  7.1683808638860771e-02  1.1883843694419265e-02  4.3581080191197739e-02  6.9465382998113417e-02  7.2838140711151744e-02  2.2429160588914292e-02  3.7240996297685229e-02  3.9497186936228723e-02  2.3201413268591837e-02  6.3896515282715782e-02  4.4263375034924869e-02  3.7142350363199794e-02  6.4586776000235685e-02  7.2384777855699634e-02  6.8202410286777176e-02  7.1005358042742869e-02  1.1480301474319873e-02  4.6356802426847428e-02  1.1247694129591618e-02  6.7923557192450620e-02  3.8141904859635388e-02  6.6917965674214402e-02  7.3187553464687707e-02  7.2583544160676139e-02  7.3226338911807104e-02  6.1186022088263785e-02  6.1036680080850274e-02  2.8272069753327682e-02  2.8239054885376234e-02  3.8111781490724354e-02  5.0805467587156219e-02  7.3155276016773088e-02  7.3282990092230479e-02  7.3112310030065950e-02  7.3125115709797989e-02  1.1993533805056108e-02  4.9607255090074749e-02  3.8675678505523288e-02  7.3333234227368926e-02  7.3009807808781690e-02  7.2747859057221920e-02  7.3136305033800211e-02  3.7315483516314842e-02  6.0267338444533310e-02  3.3928160505510487e-02  7.3077122714601150e-02  7.3151710884890211e-02  4.0789615605826508e-02  4.9856030255315868e-02  5.1528882806812538e-02  4.3671639000360696e-02  1.0843531935212862e-02  1.0645763583297087e-02  3.3660878545128670e-02  2.2788202497941418e-02  6.3841039117300699e-02  2.4359697656665600e-02  1.8297294645427925e-02  4.5760406675617891e-02  1.0774061327618803e-02  3.8665300980758981e-02  6.1747956594744073e-02  6.5543148461168155e-02  3.8191370880328292e-02  6.2089519475198938e-02  2.6680972032255307e-02  6.4713286801610079e-02  6.5338205859656481e-02  5.1278655810681008e-02  4.0389088226103688e-02  2.7252698678905805e-02  6.1987996076559526e-02  3.4109550987998886e-02 