<?xml version="1.0"?>
<VTKFile type="UnstructuredGrid"  version="0.1"  >
<UnstructuredGrid>
<Piece  NumberOfPoints="10908" NumberOfCells="21160">
<Points>
<DataArray  type="Float64"  NumberOfComponents="3"  format="ascii">-0.09999216720722226 0.001251597859899349 0  -0.09999216720722226 -0.001251597859899324 0  -0.09992951222712528 -0.003754009329879275 0  -0.09980424152647172 -0.006254068541813297 0  -0.09961643359974248 -0.008750208961396265 0  -0.0993662061271743 -0.01124086650983409 0  -0.09905371590102154 -0.01372448054389361 0  -0.09867915872731027 -0.01619949483379979 0  -0.09824276930314649 -0.01866435853836769 0  -0.09774482106965511 -0.02111752717675784 0  -0.09718562604064213 -0.02355746359624618 0  -0.09656553460708706 -0.0259826389354021 0  -0.0958849353175884 -0.02839153358207142 0  -0.09514425463489948 -0.03078263812556374 0  -0.09434395666870733 -0.03315445430244742 0  -0.09348454288482222 -0.03550549593535961 0  -0.09256655179095953 -0.03783428986424361 0  -0.09159055859931162 -0.04013937686942917 0  -0.09055717486612039 -0.04241931258597781 0  -0.08946704810847689 -0.04467266840872038 0  -0.08832086139858776 -0.04689803238741953 0  -0.08711933293576302 -0.04909401011149607 0  -0.08586321559639315 -0.051259225583765 0  -0.08455329646219767 -0.05339232208263388 0  -0.08319039632704039 -0.05549196301222316 0  -0.0817753691826212 -0.05755683273987554 0  -0.08030910168336558 -0.05958563742052986 0  -0.07879251259084807 -0.06157710580744316 0  -0.07722655219809717 -0.06352999004875236 0  -0.07561220173414296 -0.0654430664693768 0  -0.07395047274917997 -0.0673151363377717 0  -0.07224240648073096 -0.06914502661705209 0  -0.0704890732012087 -0.07093159070001633 0  -0.06869157154728435 -0.07267370912760898 0  -0.06685102783148329 -0.07437029029037232 0  -0.06496859533643848 -0.07602027111244807 0  -0.06304545359224527 -0.07762261771769907 0  -0.06108280763736874 -0.07917632607753537 0  -0.05908188726356842 -0.080680422640037 0  -0.05704394624531189 -0.08213396493998064 0  -0.05497026155416092 -0.08353604218938757 0  -0.05286213255862293 -0.08488577584822193 0  -0.05072088020996789 -0.08618232017488325 0  -0.04854784621452173 -0.08742486275614705 0  -0.04634439219295482 -0.08861262501622209 0  -0.0441118988270916 -0.08974486270460519 0  -0.0418517649947774 -0.09082086636242756 0  -0.0395654068933429 -0.09183996176700104 0  -0.03725425715221625 -0.09280151035428542 0  -0.0349197639352395 -0.09370490961901168 0  -0.03256339003325057 -0.09454959349221126 0  -0.03018661194749989 -0.09533503269591435 0  -0.02779091896447685 -0.09606073507479465 0  -0.0253778122227242 -0.09672624590455349 0  -0.02294880377222645 -0.09733114817684957 0  -0.02050541562696112 -0.0978750628605958 0  -0.01804917881120608 -0.09835764913945998 0  -0.01558163240020206 -0.09877860462541965 0  -0.01310432255576947 -0.09913766554823829 0  -0.01061880155748498 -0.09943460692074342 0  -0.008126626830025281 -0.09966924267980326 0  -0.00562935996728636 -0.09984142580291366 0  -0.003128565753890103 -0.09995104840032237 0  -0.0006258111846929931 -0.0999980417826325 0  0.001877335517092352 -0.09998237650384323 0  0.004379305882543121 -0.09990406237980078 0  0.006878532179827535 -0.09976314848204761 0  0.009373448396544122 -0.09955972310707441 0  0.01186249122098281 -0.09929391372099353 0  0.01434410102169454 -0.09896588687966891 0  0.0168167228247549 -0.09857584812435229 0  0.01927880728810846 -0.09812404185289136 0  0.02172881167238507 -0.09761075116659038 0  0.02416520080757896 -0.09703629769281898 0  0.02658644805498359 -0.09640104138348123 0  0.02899103626378299 -0.09570538028946973 0  0.03137745872169579 -0.09494975031124768 0  0.03374422009907978 -0.09413462492571403 0  0.03608983738590409 -0.0932605148895233 0  0.0384128408210011 -0.09232796791904624 0  0.04071177481301732 -0.0913375683471712 0  0.04298519885248568 -0.09028993675716174 0  0.04523168841444655 -0.08918572959380006 0  0.04744983585105387 -0.08802563875205931 0  0.0496382512736056 -0.08681039114356295 0  0.05179556342344641 -0.08554074824110286 0  0.05392042053119698 -0.08421750560150111 0  0.05601149116377094 -0.08284149236711523 0  0.05806746505864942 -0.08141357074629837 0  0.06008705394489031 -0.07993463547314045 0  0.062068992350357 -0.07840561324682899 0  0.06401203839466206 -0.0768274621509803 0  0.06591497456732821 -0.07520117105330526 0  0.0677766084906786 -0.07352775898598621 0  0.06959577366697992 -0.07180827450715208 0  0.07137133020936784 -0.07004379504385366 0  0.07310216555609947 -0.06823542621694852 0  0.07478719516768322 -0.06638430114832015 0  0.07642536320644966 -0.06449157975086556 0  0.07801564319813849 -0.06255844800169477 0  0.07955703867508632 -0.06058611719899883 0  0.08104858380061176 -0.05857582320305206 0  0.08248934397420797 -0.05652882566182319 0  0.0838784164171622 -0.05444640722168118 0  0.08521493073823577 -0.05232987272369083 0  0.08649804947905057 -0.05018054838600033 0  0.08772696863883907 -0.04799978097283517 0  0.0889009181782307 -0.04578893695061648 0  0.09001916250175765 -0.04354940163173486 0  0.09108100091877785 -0.04128257830651554 0  0.09208576808252723 -0.03898988736391795 0  0.0930328344070252 -0.03667276540152144 0  0.09392160646157242 -0.03433266432535521 0  0.09475152734259386 -0.0319710504401355 0  0.09552207702259409 -0.02958940353048034 0  0.09623277267600569 -0.02718921593367883 0  0.09688316898172744 -0.02477199160459344 0  0.0974728584021618 -0.02233924517328454 0  0.09800147143857771 -0.01989250099594415 0  0.09846867686263801 -0.0174332921997361 0  0.09887418192394669 -0.01496315972214073 0  0.09921773253348604 -0.01248365134540491 0  0.09949911342282847 -0.009996320726703157 0  0.09971814827902359 -0.007502726424618317 0  0.09987469985507552 -0.005004430922550236 0  0.09996867005594191 -0.002502999649665144 0  0.1 0 0  0.09996867005594191 0.002502999649665096 0  0.09987469985507554 0.005004430922550164 0  0.09971814827902359 0.007502726424618309 0  0.09949911342282848 0.009996320726703126 0  0.09921773253348604 0.01248365134540486 0  0.09887418192394669 0.01496315972214074 0  0.09846867686263801 0.01743329219973608 0  0.09800147143857772 0.01989250099594411 0  0.0974728584021618 0.02233924517328456 0  0.09688316898172744 0.02477199160459344 0  0.09623277267600572 0.02718921593367872 0  0.0955220770225941 0.0295894035304803 0  0.09475152734259389 0.03197105044013543 0  0.09392160646157242 0.0343326643253552 0  0.09303283440702523 0.0366727654015214 0  0.09208576808252726 0.0389898873639179 0  0.09108100091877785 0.04128257830651555 0  0.09001916250175765 0.04354940163173485 0  0.08890091817823072 0.04578893695061644 0  0.08772696863883905 0.04799978097283519 0  0.08649804947905056 0.05018054838600035 0  0.08521493073823583 0.05232987272369073 0  0.08387841641716223 0.05444640722168113 0  0.082489343974208 0.05652882566182314 0  0.08104858380061178 0.05857582320305206 0  0.07955703867508633 0.06058611719899881 0  0.07801564319813853 0.06255844800169473 0  0.07642536320644966 0.06449157975086556 0  0.07478719516768322 0.06638430114832015 0  0.0731021655560995 0.06823542621694849 0  0.07137133020936781 0.07004379504385369 0  0.0695957736669799 0.07180827450715209 0  0.06777660849067867 0.07352775898598612 0  0.06591497456732824 0.07520117105330523 0  0.06401203839466212 0.07682746215098026 0  0.06206899235035701 0.07840561324682899 0  0.06008705394489031 0.07993463547314045 0  0.05806746505864946 0.08141357074629835 0  0.05601149116377094 0.08284149236711523 0  0.05392042053119699 0.08421750560150111 0  0.05179556342344643 0.08554074824110285 0  0.04963825127360558 0.08681039114356297 0  0.04744983585105388 0.08802563875205929 0  0.04523168841444657 0.08918572959380004 0  0.04298519885248572 0.09028993675716171 0  0.04071177481301738 0.09133756834717116 0  0.0384128408210011 0.09232796791904624 0  0.03608983738590412 0.0932605148895233 0  0.03374422009907983 0.09413462492571401 0  0.03137745872169577 0.09494975031124768 0  0.02899103626378299 0.09570538028946973 0  0.02658644805498361 0.09640104138348121 0  0.02416520080757892 0.09703629769281899 0  0.02172881167238516 0.09761075116659035 0  0.01927880728810846 0.09812404185289136 0  0.01681672282475495 0.09857584812435227 0  0.01434410102169461 0.0989658868796689 0  0.01186249122098281 0.09929391372099353 0  0.009373448396544148 0.09955972310707439 0  0.006878532179827604 0.09976314848204761 0  0.004379305882543101 0.09990406237980078 0  0.001877335517092354 0.09998237650384323 0  -0.0006258111846929686 0.0999980417826325 0  -0.003128565753890144 0.09995104840032237 0  -0.005629359967286269 0.09984142580291366 0  -0.008126626830025279 0.09966924267980326 0  -0.01061880155748493 0.09943460692074342 0  -0.01310432255576943 0.09913766554823829 0  -0.01558163240020205 0.09877860462541965 0  -0.01804917881120606 0.09835764913945998 0  -0.02050541562696107 0.09787506286059582 0  -0.02294880377222647 0.09733114817684957 0  -0.0253778122227242 0.09672624590455349 0  -0.02779091896447682 0.09606073507479465 0  -0.03018661194749985 0.09533503269591437 0  -0.03256339003325048 0.0945495934922113 0  -0.03491976393523949 0.09370490961901168 0  -0.0372542571522162 0.09280151035428545 0  -0.03956540689334286 0.09183996176700107 0  -0.04185176499477741 0.09082086636242755 0  -0.04411189882709158 0.0897448627046052 0  -0.04634439219295476 0.08861262501622214 0  -0.04854784621452175 0.08742486275614705 0  -0.0507208802099679 0.08618232017488325 0  -0.05286213255862291 0.08488577584822195 0  -0.05497026155416086 0.08353604218938761 0  -0.05704394624531183 0.08213396493998068 0  -0.0590818872635684 0.080680422640037 0  -0.06108280763736872 0.07917632607753539 0  -0.06304545359224521 0.07762261771769911 0  -0.06496859533643849 0.07602027111244805 0  -0.06685102783148326 0.07437029029037233 0  -0.06869157154728432 0.072673709127609 0  -0.07048907320120865 0.07093159070001638 0  -0.07224240648073095 0.06914502661705212 0  -0.07395047274917996 0.06731513633777172 0  -0.07561220173414293 0.0654
[...]
<PointData  Scalars="displacement-0"> 
<DataArray  type="Float64"  Name="displacement-0"  format="ascii">7.9246690986514712e-02  7.9256604148888923e-02  7.9247889755423198e-02  7.9245034228893979e-02  7.9223343806844537e-02  7.9225864820764422e-02  7.9241076842552563e-02  7.9241741039995983e-02  7.9258823544947996e-02  7.9260236903570105e-02  7.9264224865694108e-02  7.9249019503012358e-02  7.9261123214115034e-02  7.9247742213375535e-02  7.9243477706698970e-02  7.9234423516219982e-02  7.9228347120929479e-02  7.9236137291026132e-02  7.9246336901975217e-02  7.9245599396722516e-02  7.9243213907483262e-02  7.9239300711655969e-02  7.9228716212015812e-02  7.9238512398617997e-02  7.9249002610277550e-02  7.9263633392530966e-02  7.9239091348329196e-02  7.9262571821975700e-02  7.9269157128329840e-02  7.9267802204635196e-02  7.9256466265696296e-02  7.9240753919991663e-02  7.9224555124087756e-02  7.9220585501863519e-02  7.9241800707393603e-02  7.9246274600947728e-02  7.9247685330656972e-02  7.9245921198407371e-02  7.9235072629946626e-02  7.9248656373879747e-02  7.9257166620412198e-02  7.9259193920232743e-02  7.9254707541292338e-02  7.9237858716731280e-02  7.9243408483013728e-02  7.9241760556825011e-02  7.9229420414737919e-02  7.9235308793863438e-02  7.9256836503396169e-02  7.9257633172719139e-02  7.9239442394718931e-02  7.9242033214478994e-02  7.9244861288160037e-02  7.9256040414920195e-02  7.9252607781630138e-02  7.9250176526613189e-02  7.9243658502302472e-02  7.9246565656857296e-02  7.9257287202464943e-02  7.9251616164725480e-02  7.9224739499513017e-02  7.9233007772448502e-02  7.9225676102223835e-02  7.9226551850980778e-02  7.9238317175381962e-02  7.9222363854589986e-02  7.9230900604166418e-02  7.9249736915777455e-02  7.9267831356257590e-02  7.9267832155805115e-02  7.9255869986838659e-02  7.9263551513653552e-02  7.9270009790733870e-02  7.9271485165878355e-02  7.9261556890660403e-02  7.9247325524886669e-02  7.9220749837151064e-02  7.9189396593621800e-02  7.9222452956333483e-02  7.9244798353160686e-02  7.9242216534132451e-02  7.9252816007508581e-02  7.9258536986418132e-02  7.9237135564834998e-02  7.9244471340702227e-02  7.9248066528536221e-02  7.9259908573744126e-02  7.9264990040338060e-02  7.9268484017462448e-02  7.9275777152763599e-02  7.9256824810269175e-02  7.9232584843538109e-02  7.9205639283139367e-02  7.9217839612902269e-02  7.9240744506474545e-02  7.9246273906448783e-02  7.9236767841516204e-02  7.9214664866017956e-02  7.9247608933835506e-02  7.9262015228413391e-02  7.9264544899630196e-02  7.9266583060167289e-02  7.9260236908414272e-02  7.9242728012106786e-02  7.9243233242213981e-02  7.9210046178686808e-02  7.9200599826274337e-02  7.9233546496762439e-02  7.9253722311063979e-02  7.9263338849804549e-02  7.9280801056169650e-02  7.9282610163142059e-02  7.9265291313539141e-02  7.9248462023424310e-02  7.9233153605785145e-02  7.9222063456005173e-02  7.9221733681016149e-02  7.9228570406069010e-02  7.9234905155693633e-02  7.9237822444743394e-02  7.9271346131269349e-02  7.9280292862114798e-02  7.9255997503617073e-02  7.9251070387828526e-02  7.9241609136550206e-02  7.9240658231186811e-02  7.9225918346762403e-02  7.9233331886431654e-02  7.9248557236165182e-02  7.9257482374806149e-02  7.9231040029594177e-02  7.9238818861912835e-02  7.9232053770072253e-02  7.9234234323011687e-02  7.9238374171629405e-02  7.9249739998386415e-02  7.9263148919785170e-02  7.9263972193882981e-02  7.9256205580783584e-02  7.9246183774298914e-02  7.9245130711124351e-02  7.9241703201400698e-02  7.9246674673676881e-02  7.9242739117224043e-02  7.9254243460086235e-02  7.9260681413955938e-02  7.9250917986963099e-02  7.9241772008930150e-02  7.9225109422126225e-02  7.9231715946754849e-02  7.9244189627888817e-02  7.9249422571343167e-02  7.9254858377618018e-02  7.9243789526584174e-02  7.9235392624211337e-02  7.9233543925023506e-02  7.9227604059770779e-02  7.9233745726342814e-02  7.9241285987931495e-02  7.9242167615950779e-02  7.9261032994133188e-02  7.9271976747613757e-02  7.9283257437453430e-02  7.9275309514598130e-02  7.9262881477950742e-02  7.9254958188551466e-02  7.9251205504319119e-02  7.9242108639929226e-02  7.9214894611189371e-02  7.9227138941362657e-02  7.9231618204903320e-02  7.9234086205318799e-02  7.9244335263436244e-02  7.9241389096372794e-02  7.9230190862995473e-02  7.9225517536361159e-02  7.9226583400643188e-02  7.9231909141338791e-02  7.9250692012538912e-02  7.9264823822097916e-02  7.9265791636311575e-02  7.9277637587085045e-02  7.9279877675657834e-02  7.9274241242129506e-02  7.9247801905019996e-02  7.9238530009385091e-02  7.9209840855763922e-02  7.9189076365171182e-02  7.9219487285293114e-02  7.9240124307461898e-02  7.9255908137470979e-02  7.9250732863449039e-02  7.9249093668060350e-02  7.9257044774482532e-02  7.9256500219744022e-02  7.9246407308305636e-02  7.9247810786437126e-02  7.9263652993555700e-02  7.9250401913023641e-02  7.9245140108874387e-02  7.9255435958285020e-02  7.9258544945890075e-02  7.9262895022372687e-02  7.9247116244239357e-02  7.9236735290398014e-02  7.9216650761957705e-02  7.9223965792359852e-02  7.9241587124833160e-02  7.9244321423059219e-02  7.9255482671058072e-02  7.9253804491766278e-02  7.9239455615479001e-02  7.9246110473485135e-02  7.9247078281980451e-02  7.9241743398473174e-02  7.9232214912039953e-02  7.9232639377013261e-02  7.9231615368809405e-02  7.9248180981602689e-02  7.9246208367603654e-02  7.9261131787087630e-02  7.9250574404641824e-02  7.9245597820940400e-02  7.9246861630382179e-02  7.9244168326538370e-02  7.9232381455457107e-02  7.9244892361294533e-02  7.9246577013634412e-02  7.9264416418132172e-02  7.9279253658278148e-02  7.9265138146399711e-02  7.9245333939479037e-02  7.9239424467944880e-02  7.9245623785043212e-02  7.9240923604676008e-02  7.9212422710473684e-02  7.9196783602772811e-02  7.9226054983886185e-02  7.9227680611284837e-02  7.9260052934818637e-02  7.9251814475890900e-02  7.9271621751090551e-02  7.9265930113563754e-02  7.9264140824172394e-02  7.9261637030615617e-02  7.9256645180231941e-02  7.9238631356335826e-02  7.9234006804594526e-02  7.9243055475993043e-02  7.9230901314164021e-02  7.9229966463439966e-02  0.0000000000000000e+00  0.0000000000000000e+00  0.0000000000000000e+00  0.0000000000000000e+00  0.0000000000000000e+00  0.0000000000000000e+00  0.0000000000000000e+00  0.0000000000000000e+00  0.0000000000000000e+00  0.0000000000000000e+00  0.0000000000000000e+00  0.0000000000000000e+00  0.0000000000000000e+00  0.0000000000000000e+00  0.0000000000000000e+00  0.0000000000000000e+00  0.0000000000000000e+00  0.0000000000000000e+00  0.0000000000000000e+00  0.0000000000000000e+00  0.0000000000000000e+00  0.0000000000000000e+00  0.0000000000000000e+00  0.0000000000000000e+00  0.0000000000000000e+00  0.0000000000000000e+00  0.0000000000000000e+00  0.0000000000000000e+00  0.0000000000000000e+00  0.0000000000000000e+00  0.0000000000000000e+00  0.0000000000000000e+00  0.0000000000000000e+00  0.0000000000000000e+00  0.0000000000000000e+00  0.0000000000000000e+00  0.0000000000000000e+00  0.0000000000000000e+00  0.0000000000000000e+00  0.0000000000000000e+00  0.0000000000000000e+00  0.0000000000000000e+00  0.0000000000000000e+00  0.0000000000000000e+00  0.0000000000000000e+00  0.0000000000000000e+00  0.0000000000000000e+00  0.0000000000000000e+00  0.0000000000000000e+00  0.0000000000000000e+00  0.0000000000000000e+00  0.0000000000000000e+00  0.0000000000000000e+00  0.0000000000000000e+00  0.0000000000000000e+00  0.0000000000000000e+00  0.0000000000000000e+00  0.0000000000000000e+00  0.0000000000000000e+00  0.0000000000000000e+00  0.0000000000000000e+00  0.0000000000000000e+00  0.0000000000000000e+00  0.0000000000000000e+00  0.0000000000000000e+00  0.0000000000000000e+00  0.0000000000000000e+00  0.0000000000000000e+00  0.0000000000000000e+00  0.0000000000000000e+00  0.0000000000000000e+00  0.0000000000000000e+00  0.0000000000000000e+00  0.0000000000000000e+00  0.0000000000000000e+00  0.0000000000000000e+00  0.0000000000000000e+00  0.0000000000000000e+00  0.0000000000000000e+00  0.0000000000000000e+00  0.0000000000000000e+00  0.0000000000000000e+00  0.0000000000000000e+00  0.0000000000000000e+00  0.0000000000000000e+00  0.0000000000000000e+00  0.0000000000000000e+00  0.0000000000000000e+00  0.0000000000000000e+00  0.0000000000000000e+00  0.0000000000000000e+00  0.0000000000000000e+00  0.0000000000000000e+00  0.0000000000000000e+00  0.0000000000000000e+00  0.0000000000000000e+00  0.0000000000000000e+00  0.0000000000000000e+00  0.0000000000000000e+00  0.0000000000000000e+00  0.0000000000000000e+00  4.5470380650071772e-02  4.5471900472832769e-02  4.5446801485904749e-02  4.5469173816173603e-02  4.5448837810539350e-02  4.5462722065001036e-02  4.5457570696793917e-02  4.5463944103728435e-02  4.5447963915435936e-02  4.5474842909027979e-02  4.5483758744562230e-02  4.5451772384129639e-02  3.7180030676792104e-02  3.3207573078794947e-02  5.7394428202520505e-02  5.5147454036648454e-02  3.1415296473795318e-02  5.8259029628689910e-02  5.6434208411099286e-02  5.6431621629420767e-02  5.6455747010990362e-02  5.6419036134714051e-02  5.6430307206777594e-02  5.6560205675099229e-02  5.6458838138319992e-02  5.6597356549703909e-02  5.6721729525650223e-02  5.7817990366324637e-02  3.1720264116469790e-02  3.1689917034933193e-02  3.3218898132560938e-02  3.1667649922991717e-02  3.1680506621668859e-02  3.3692899263479119e-02  3.1591251901273182e-02  3.3482599774424242e-02  3.3946671491019723e-02  6.1219845619607562e-02  6.1981703212466592e-02  6.1967800619340034e-02  6.2670763255708833e-02  6.2338795879009277e-02  6.2670891410784843e-02  6.2378231649458077e-02  6.2369390010168738e-02  6.2379912918872148e-02  6.2338350975854516e-02  6.2377937628613926e-02  6.2430309484612229e-02  6.2734081934161051e-02  2.6676875704638253e-02  2.6712210368747841e-02  2.5609141046223312e-02  2.5642719665910117e-02  2.5633156196918996e-02  2.5599079068387737e-02  2.5745621348453568e-02  2.5631024111271654e-02  2.5828019584209157e-02  2.5493437909499265e-02  2.5406039992017942e-02  2.5892676239171783e-02  6.0834735166429392e-02  6.3006391343908119e-02  5.9209842401483165e-02  5.9205678251516333e-02  6.3799467616647537e-02  6.3820092106993756e-02  4.7860901627689641e-02  6.4451347729767683e-02  6.4399051123580131e-02  6.4792461273744606e-02  6.5089295630429519e-02  2.0741738974081925e-02  4.4453308089475001e-02  4.3926297361332009e-02  6.5357605734883570e-02  6.6172171023581264e-02  6.7046342206459136e-02  4.3318507348502094e-02  6.6978409531819411e-02  2.0308213270248669e-02  6.7161180221444364e-02  6.7172183457833337e-02  4.5031967865648198e-02  6.7655742743664621e-02  6.7642011971023402e-02  6.7634332391220062e-02  6.7593251246715266e-02  6.7319704308479278e-02  6.7356723771645088e-02  6.7634166628051134e-02  1.9183330531328334e-02  6.7445931195582495e-02  6.7704159387655602e-02  1.9199036168448654e-02  5.2300221049607014e-02  5.1362089762250943e-02  6.7809503881492719e-02  1.8752244421504628e-02  2.0562155257437285e-02  4.5943682481602514e-02  4.4969348514211353e-02  4.4741445950948033e-02  4.5570245919747766e-02  5.2446565518559869e-02  5.1488282091436993e-02  4.4873322792080832e-02  5.1478890547431475e-02  5.1701105503114839e-02  5.1508136624761454e-02  4.9977716150121823e-02  5.1487220847581054e-02  5.2125159103728891e-02  4.5773708067972547e-02  1.9262921407949118e-02  5.2498804487611905e-02  5.2755862120999100e-02  6.7621446564342907e-02  3.6594095327065986e-02  3.7719833324295356e-02  1.8628494648113815e-02  6.6294028353176798e-02  6.6301139205250367e-02  5.3606037436020167e-02  3.3236262491179468e-02  4.4615478288278644e-02  4.4593905199130993e-02  1.7931536098707311e-02  1.8277085577770250e-02  1.8252137214631446e-02  1.8259423725108415e-02  1.7801083126857076e-02  6.8577339339376001e-02  1.8197839692689292e-02  1.8610993490941405e-02  6.8598303842614561e-02  6.8611647188132438e-02  6.8846280444739866e-02  6.5936320059410136e-02  3.9540759002559607e-02  3.6356881976724507e-02  3.6560312990469933e-02  3.6274369570713283e-02  3.9538811324810887e-02  3.6505433526727409e-02  3.6325531680561879e-02  5.0897122684965934e-02  5.3672747976677045e-02  5.4378256983466877e-02  3.6558130713542136e-02  6.8735233482307076e-02  4.0638521026704913e-02  3.5998070022731227e-02  3.5241475532819880e-02  4.5761535155423208e-02  4.0875559589441508e-02  6.8475657324785874e-02  5.6008201182110404e-02  3.6304683170354554e-02  6.5650060597719134e-02  3.6013840656502566e-02  2.0882001718317163e-02  2.0935294713111240e-02  2.0879164470908273e-02  4.6076923050374190e-02  6.9090990801201915e-02  2.2276066771122441e-02  3.5167978958991881e-02  5.6035278545231978e-02  3.1692906930472990e-02  3.6065768737143386e-02  4.4588741510401167e-02  3.6334246465302852e-02  3.6318013370268569e-02  6.8845117811280054e-02  4.4819620295908809e-02  5.3362598367539607e-02  6.9275588303686284e-02  6.9592723524944999e-02  1.6675559678255257e-02  1.6453879869593308e-02  7.0110600160370309e-02  6.9409308562164429e-02  5.3922446331225567e-02  4.4177590772775069e-02  3.1702944440188764e-02  7.0268855483031051e-02  5.6398853073223308e-02  5.4749872559461378e-02  1.6245418190059074e-02  5.8546385377376560e-02  1.5888349599074029e-02  1.5790374952597237e-02  5.7968174974069815e-02  6.9845107733863737e-02  6.9725620332318480e-02  5.5369754740202295e-02  5.5202908915468203e-02  7.0504996449355040e-02  3.7632279432503350e-02  7.0414653750098158e-02  6.9777123878413755e-02  6.9692348780981503e-02  7.0451228635464117e-02  1.4765376855666411e-02  7.0626514370187618e-02  4.7304999927337596e-02  5.5447722015846378e-02  7.0398420975649065e-02  7.0576935076192684e-02  7.0713243988775848e-02  7.0763687272228301e-02  7.0418409470343862e-02  7.0742209198428233e-02  4.7101245003970720e-02  7.0453880112290035e-02  5.8922917440672143e-02  5.2306053817898629e-02  5.5682900467186339e-02  5.2849548466570084e-02  2.9751063629288876e-02  3.4385321368869098e-02  3.4036101867074349e-02  3.7410225179654713e-02  7.0398905761180630e-02  6.7619181855975513e-02  7.0574370671937448e-02  7.0585976611261661e-02  7.0573338727303550e-02  5.4309832827949121e-02  5.4388344734421765e-02  5.4377872994374354e-02  5.9759947345551609e-02  5.7406816997755884e-02  5.9838950621303399e-02  1.4743556418034546e-02  5.4371420933890441e-02  1.3942525528572509e-02  7.1190243024686378e-02  1.6144275070730581e-02  1.4224773368722601e-02  1.3861757132304725e-02  1.4127425886352997e-02  1.4090219940472746e-02  1.4037745521169938e-02  2.9448550119234567e-02  1.3799285825035257e-02  3.5946120030506526e-02  3.6041707658844430e-02  3.0866030999705106e-02  5.2700186518058981e-02  5.9314654057291680e-02  1.4090515148361857e-02  5.9390512124967175e-02  7.1146276663702934e-02  7.1162764276353194e-02  1.4524707399080589e-02  5.8023344809739315e-02  4.6292835915104219e-02  7.1535112319716473e-02  4.4118490607979309e-02  5.8492596537544031e-02  2.7187359829135886e-02  2.7354040169574118e-02  5.9600074516500109e-02  2.7752485148266087e-02  3.6390001351352445e-02  7.1863265263263351e-02  7.1095164869490218e-02  5.9306135623439941e-02  5.8659051347522702e-02  5.9299029525024374e-02  4.8162541784074642e-02  7.1914952026752618e-02  2.7703782134271882e-02  3.5193195752451181e-02  6.1957495303707186e-02  6.3043993753333027e-02  5.9252735021453597e-02  6.1455255357001935e-02  5.8599706184780526e-02  4.9860544100862055e-02  5.3776343876356304e-02  5.1205241404128132e-02  6.4986406940279309e-02  7.1928689513711286e-02  5.8256741061458457e-02  1.3140363078176011e-02  6.0417001355290136e-02  2.7612635873916071e-02  4.4437025013944677e-02  3.4996271695708341e-02  7.1771425222703467e-02  5.9472187647039439e-02  5.9176426772267129e-02  7.1247348464589466e-02  6.1286988690205803e-02  6.1319167682942745e-02  5.4522497507094703e-02  5.0985596900903270e-02  3.7080003179959686e-02  7.2033831962165201e-02  2.7532972266799138e-02  6.1152560933430453e-02  2.8085164416262434e-02  4.9234964724331642e-02  3.0852912090165070e-02  2.7287624990949558e-02  3.9306419581357908e-02  2.4547749267163060e-02  2.3561535180659871e-02  5.0291973825304224e-02  7.1830710078465407e-02  1.3179548467678907e-02  4.4849005536805459e-02  7.2291817673857353e-02  6.0273440021544750e-02  7.2317854171016965e-02  4.6026065263240448e-02  7.2294866197158206e-02  7.2292745577138454e-02  4.4875865812730675e-02  5.0035203504849628e-02  2.7493150543194990e-02  1.2504790591784084e-02  6.4002246611830085e-02  7.1715658914087321e-02  5.9765961876503550e-02  2.5545845497151162e-02  6.4084798763270057e-02  2.3771269626187783e-02  7.1869469358700963e-02  5.2586348688783292e-02  5.9857895208277764e-02  7.1841409931433120e-02  6.0661715821395998e-02  4.1417459263798716e-02  5.1770534294316654e-02  2.7128109207568453e-02  6.2267501168569786e-02  4.6962956453361376e-02  7.0187130949267401e-02  2.8607227481792726e-02  6.1671089323933559e-02  4.2465865126884828e-02  4.4377990140507799e-02  5.6990034145093169e-02  5.5385514259218428e-02  6.2911226862908065e-02  4.4616527083153674e-02  4.1185541129886170e-02  6.4057462188069417e-02  3.9575233451615822e-02  2.9760204279408689e-02  5.5285801580692732e-02  4.4181815194247472e-02  2.3999948706766704e-02  3.6623456696977717e-02  4.3644609357299601e-02  4.2664207850231978e-02  6.3713197368939295e-02  4.3867221127011372e-02  4.7040412691172907e-02  6.4690309938276069e-02  5.3827342244681907e-02  1.1343171232342268e-02  1.2405393885887269e-02  1.2070081962585362e-02  6.2844099722258157e-02  1.1306193733502348e-02  3.8116801759401797e-02  6.4177427667332559e-02  1.2617567148891139e-02  4.6256305286855842e-02  6.4592586957844242e-02  7.2471580884285222e-02  6.4506723602496957e-02  4.9987653780866038e-02  7.2625497789964313e-02  5.2930634757154565e-02  1.1111729597242366e-02  3.0975503791711104e-02  5.1883459055309611e-02  4.2605077872053032e-02  2.8415902241519447e-02  7.3028695287055245e-02  2.9591948403552937e-02  2.2636508134511978e-02  1.1205540000598950e-02  4.3651119268097470e-02  7.2686866285509133e-02  6.9835951043742683e-02  7.2927834739744749e-02  7.2930296567180947e-02  3.9475063048975322e-02  7.2371853194958188e-02  7.2805031438546386e-02  5.1863083930867492e-02  4.9631604981303999e-02  5.5304736800424879e-02  6.2175241021568371e-02  3.8435045003477608e-02  1.1246968559804137e-02  7.1683815294464950e-02  1.1883836547011426e-02  4.3581086517847645e-02  6.9465381420204794e-02  7.2838134679728633e-02  2.2429153661858884e-02  3.7240986509671267e-02  3.9497178039366303e-02  2.3201464437639117e-02  6.3896513120214368e-02  4.4263376418503246e-02  3.7142350443774973e-02  6.4586773600004824e-02  7.2384780160700976e-02  6.8202410244664530e-02  7.1005371040919307e-02  1.1480312822183670e-02  4.6356794166718514e-02  1.1247691084255081e-02  6.7923561529780865e-02  3.8141907380667008e-02  6.6917959816642406e-02  7.3187549448495162e-02  7.2583539826340804e-02  7.3226331961431690e-02  6.1186031021699040e-02  6.1036673279746545e-02  2.8272072583919394e-02  2.8239049439800431e-02  3.8111772953118843e-02  5.0805421635810505e-02  7.3155269161538014e-02  7.3282993033931598e-02  7.3112317666676419e-02  7.3125122820295554e-02  1.1993539440904756e-02  4.9607265280077355e-02  3.8675687666264814e-02  7.3333213201701802e-02  7.3009753808664646e-02  7.2747857539040561e-02  7.3136304399846114e-02  3.7315463075331325e-02  6.0267337518758152e-02  3.3928162487104105e-02  7.3077119847652763e-02  7.3151708375981339e-02  4.0789614280359300e-02  4.9856028906123527e-02  5.1528881128735438e-02  4.3671638974875304e-02  1.0843537703278491e-02  1.0645774104179891e-02  3.3660884948723407e-02  2.2788199744722570e-02  6.3841046607445898e-02  2.4365848648693143e-02  1.8297274422764239e-02  4.5760390684158783e-02  1.0774065700028208e-02  3.8665305392542731e-02  6.1747950602345433e-02  6.5543143314029953e-02  3.8191362915038413e-02  6.2089513967625166e-02  2.6680977058688514e-02  6.4713272791779866e-02  6.5338111704089444e-02  5.1278654004717109e-02  4.0389085701852311e-02  2.7252703704166541e-02  6.1987991905082668e-02  3.4109544345432570e-02 