<?xml version="1.0"?>
<VTKFile type="UnstructuredGrid"  version="0.1"  >
<UnstructuredGrid>
<Piece  NumberOfPoints="10908" NumberOfCells="21160">
<Points>
<DataArray  type="Float64"  NumberOfComponents="3"  format="ascii">-0.09999216720722226 0.001251597859899349 0  -0.09999216720722226 -0.001251597859899324 0  -0.09992951222712528 -0.003754009329879275 0  -0.09980424152647172 -0.006254068541813297 0  -0.09961643359974248 -0.008750208961396265 0  -0.0993662061271743 -0.01124086650983409 0  -0.09905371590102154 -0.01372448054389361 0  -0.09867915872731027 -0.01619949483379979 0  -0.09824276930314649 -0.01866435853836769 0  -0.09774482106965511 -0.02111752717675784 0  -0.09718562604064213 -0.02355746359624618 0  -0.09656553460708706 -0.0259826389354021 0  -0.0958849353175884 -0.02839153358207142 0  -0.09514425463489948 -0.03078263812556374 0  -0.09434395666870733 -0.03315445430244742 0  -0.09348454288482222 -0.03550549593535961 0  -0.09256655179095953 -0.03783428986424361 0  -0.09159055859931162 -0.04013937686942917 0  -0.09055717486612039 -0.04241931258597781 0  -0.08946704810847689 -0.04467266840872038 0  -0.08832086139858776 -0.04689803238741953 0  -0.08711933293576302 -0.04909401011149607 0  -0.08586321559639315 -0.051259225583765 0  -0.08455329646219767 -0.05339232208263388 0  -0.08319039632704039 -0.05549196301222316 0  -0.0817753691826212 -0.05755683273987554 0  -0.08030910168336558 -0.05958563742052986 0  -0.07879251259084807 -0.06157710580744316 0  -0.07722655219809717 -0.06352999004875236 0  -0.07561220173414296 -0.0654430664693768 0  -0.07395047274917997 -0.0673151363377717 0  -0.07224240648073096 -0.06914502661705209 0  -0.0704890732012087 -0.07093159070001633 0  -0.06869157154728435 -0.07267370912760898 0  -0.06685102783148329 -0.07437029029037232 0  -0.06496859533643848 -0.07602027111244807 0  -0.06304545359224527 -0.07762261771769907 0  -0.06108280763736874 -0.07917632607753537 0  -0.05908188726356842 -0.080680422640037 0  -0.05704394624531189 -0.08213396493998064 0  -0.05497026155416092 -0.08353604218938757 0  -0.05286213255862293 -0.08488577584822193 0  -0.05072088020996789 -0.08618232017488325 0  -0.04854784621452173 -0.08742486275614705 0  -0.04634439219295482 -0.08861262501622209 0  -0.0441118988270916 -0.08974486270460519 0  -0.0418517649947774 -0.09082086636242756 0  -0.0395654068933429 -0.09183996176700104 0  -0.03725425715221625 -0.09280151035428542 0  -0.0349197639352395 -0.09370490961901168 0  -0.03256339003325057 -0.09454959349221126 0  -0.03018661194749989 -0.09533503269591435 0  -0.02779091896447685 -0.09606073507479465 0  -0.0253778122227242 -0.09672624590455349 0  -0.02294880377222645 -0.09733114817684957 0  -0.02050541562696112 -0.0978750628605958 0  -0.01804917881120608 -0.09835764913945998 0  -0.01558163240020206 -0.09877860462541965 0  -0.01310432255576947 -0.09913766554823829 0  -0.01061880155748498 -0.09943460692074342 0  -0.008126626830025281 -0.09966924267980326 0  -0.00562935996728636 -0.09984142580291366 0  -0.003128565753890103 -0.09995104840032237 0  -0.0006258111846929931 -0.0999980417826325 0  0.001877335517092352 -0.09998237650384323 0  0.004379305882543121 -0.09990406237980078 0  0.006878532179827535 -0.09976314848204761 0  0.009373448396544122 -0.09955972310707441 0  0.01186249122098281 -0.09929391372099353 0  0.01434410102169454 -0.09896588687966891 0  0.0168167228247549 -0.09857584812435229 0  0.01927880728810846 -0.09812404185289136 0  0.02172881167238507 -0.09761075116659038 0  0.02416520080757896 -0.09703629769281898 0  0.02658644805498359 -0.09640104138348123 0  0.02899103626378299 -0.09570538028946973 0  0.03137745872169579 -0.09494975031124768 0  0.03374422009907978 -0.09413462492571403 0  0.03608983738590409 -0.0932605148895233 0  0.0384128408210011 -0.09232796791904624 0  0.04071177481301732 -0.0913375683471712 0  0.04298519885248568 -0.09028993675716174 0  0.04523168841444655 -0.08918572959380006 0  0.04744983585105387 -0.08802563875205931 0  0.0496382512736056 -0.08681039114356295 0  0.05179556342344641 -0.08554074824110286 0  0.05392042053119698 -0.08421750560150111 0  0.05601149116377094 -0.08284149236711523 0  0.05806746505864942 -0.08141357074629837 0  0.06008705394489031 -0.07993463547314045 0  0.062068992350357 -0.07840561324682899 0  0.06401203839466206 -0.0768274621509803 0  0.06591497456732821 -0.07520117105330526 0  0.0677766084906786 -0.07352775898598621 0  0.06959577366697992 -0.07180827450715208 0  0.07137133020936784 -0.07004379504385366 0  0.07310216555609947 -0.06823542621694852 0  0.07478719516768322 -0.06638430114832015 0  0.07642536320644966 -0.06449157975086556 0  0.07801564319813849 -0.06255844800169477 0  0.07955703867508632 -0.06058611719899883 0  0.08104858380061176 -0.05857582320305206 0  0.08248934397420797 -0.05652882566182319 0  0.0838784164171622 -0.05444640722168118 0  0.08521493073823577 -0.05232987272369083 0  0.08649804947905057 -0.05018054838600033 0  0.08772696863883907 -0.04799978097283517 0  0.0889009181782307 -0.04578893695061648 0  0.09001916250175765 -0.04354940163173486 0  0.09108100091877785 -0.04128257830651554 0  0.09208576808252723 -0.03898988736391795 0  0.0930328344070252 -0.03667276540152144 0  0.09392160646157242 -0.03433266432535521 0  0.09475152734259386 -0.0319710504401355 0  0.09552207702259409 -0.02958940353048034 0  0.09623277267600569 -0.02718921593367883 0  0.09688316898172744 -0.02477199160459344 0  0.0974728584021618 -0.02233924517328454 0  0.09800147143857771 -0.01989250099594415 0  0.09846867686263801 -0.0174332921997361 0  0.09887418192394669 -0.01496315972214073 0  0.09921773253348604 -0.01248365134540491 0  0.09949911342282847 -0.009996320726703157 0  0.09971814827902359 -0.007502726424618317 0  0.09987469985507552 -0.005004430922550236 0  0.09996867005594191 -0.002502999649665144 0  0.1 0 0  0.09996867005594191 0.002502999649665096 0  0.09987469985507554 0.005004430922550164 0  0.09971814827902359 0.007502726424618309 0  0.09949911342282848 0.009996320726703126 0  0.09921773253348604 0.01248365134540486 0  0.09887418192394669 0.01496315972214074 0  0.09846867686263801 0.01743329219973608 0  0.09800147143857772 0.01989250099594411 0  0.0974728584021618 0.02233924517328456 0  0.09688316898172744 0.02477199160459344 0  0.09623277267600572 0.02718921593367872 0  0.0955220770225941 0.0295894035304803 0  0.09475152734259389 0.03197105044013543 0  0.09392160646157242 0.0343326643253552 0  0.09303283440702523 0.0366727654015214 0  0.09208576808252726 0.0389898873639179 0  0.09108100091877785 0.04128257830651555 0  0.09001916250175765 0.04354940163173485 0  0.08890091817823072 0.04578893695061644 0  0.08772696863883905 0.04799978097283519 0  0.08649804947905056 0.05018054838600035 0  0.08521493073823583 0.05232987272369073 0  0.08387841641716223 0.05444640722168113 0  0.082489343974208 0.05652882566182314 0  0.08104858380061178 0.05857582320305206 0  0.07955703867508633 0.06058611719899881 0  0.07801564319813853 0.06255844800169473 0  0.07642536320644966 0.06449157975086556 0  0.07478719516768322 0.06638430114832015 0  0.0731021655560995 0.06823542621694849 0  0.07137133020936781 0.07004379504385369 0  0.0695957736669799 0.07180827450715209 0  0.06777660849067867 0.07352775898598612 0  0.06591497456732824 0.07520117105330523 0  0.06401203839466212 0.07682746215098026 0  0.06206899235035701 0.07840561324682899 0  0.06008705394489031 0.07993463547314045 0  0.05806746505864946 0.08141357074629835 0  0.05601149116377094 0.08284149236711523 0  0.05392042053119699 0.08421750560150111 0  0.05179556342344643 0.08554074824110285 0  0.04963825127360558 0.08681039114356297 0  0.04744983585105388 0.08802563875205929 0  0.04523168841444657 0.08918572959380004 0  0.04298519885248572 0.09028993675716171 0  0.04071177481301738 0.09133756834717116 0  0.0384128408210011 0.09232796791904624 0  0.03608983738590412 0.0932605148895233 0  0.03374422009907983 0.09413462492571401 0  0.03137745872169577 0.09494975031124768 0  0.02899103626378299 0.09570538028946973 0  0.02658644805498361 0.09640104138348121 0  0.02416520080757892 0.09703629769281899 0  0.02172881167238516 0.09761075116659035 0  0.01927880728810846 0.09812404185289136 0  0.01681672282475495 0.09857584812435227 0  0.01434410102169461 0.0989658868796689 0  0.01186249122098281 0.09929391372099353 0  0.009373448396544148 0.09955972310707439 0  0.006878532179827604 0.09976314848204761 0  0.004379305882543101 0.09990406237980078 0  0.001877335517092354 0.09998237650384323 0  -0.0006258111846929686 0.0999980417826325 0  -0.003128565753890144 0.09995104840032237 0  -0.005629359967286269 0.09984142580291366 0  -0.008126626830025279 0.09966924267980326 0  -0.01061880155748493 0.09943460692074342 0  -0.01310432255576943 0.09913766554823829 0  -0.01558163240020205 0.09877860462541965 0  -0.01804917881120606 0.09835764913945998 0  -0.02050541562696107 0.09787506286059582 0  -0.02294880377222647 0.09733114817684957 0  -0.0253778122227242 0.09672624590455349 0  -0.02779091896447682 0.09606073507479465 0  -0.03018661194749985 0.09533503269591437 0  -0.03256339003325048 0.0945495934922113 0  -0.03491976393523949 0.09370490961901168 0  -0.0372542571522162 0.09280151035428545 0  -0.03956540689334286 0.09183996176700107 0  -0.04185176499477741 0.09082086636242755 0  -0.04411189882709158 0.0897448627046052 0  -0.04634439219295476 0.08861262501622214 0  -0.04854784621452175 0.08742486275614705 0  -0.0507208802099679 0.08618232017488325 0  -0.05286213255862291 0.08488577584822195 0  -0.05497026155416086 0.08353604218938761 0  -0.05704394624531183 0.08213396493998068 0  -0.0590818872635684 0.080680422640037 0  -0.06108280763736872 0.07917632607753539 0  -0.06304545359224521 0.07762261771769911 0  -0.06496859533643849 0.07602027111244805 0  -0.06685102783148326 0.07437029029037233 0  -0.06869157154728432 0.072673709127609 0  -0.07048907320120865 0.07093159070001638 0  -0.07224240648073095 0.06914502661705212 0  -0.07395047274917996 0.06731513633777172 0  -0.07561220173414293 0.0654
[...]
<PointData  Scalars="von Mises Stress [Pa]"> 
<DataArray  type="Float64"  Name="von Mises Stress [Pa]"  format="ascii">1.4981586819362619e+10  1.4927832308607773e+10  1.4919766559974407e+10  1.4922150974564680e+10  1.4930379209253738e+10  1.4969363861850056e+10  1.4984741691451159e+10  1.4958641698290903e+10  1.4954101578104801e+10  1.4994793940983730e+10  1.5013292892764948e+10  1.4999899136443514e+10  1.4895453212003332e+10  1.4905728052128036e+10  1.4979424228560335e+10  1.4951348396629805e+10  1.4895097071019602e+10  1.4926457713525455e+10  1.4985445462592978e+10  1.4899006585458405e+10  1.4932028559526581e+10  1.4972119210806034e+10  1.4974257174491226e+10  1.5021337510010967e+10  1.4941698306307520e+10  1.4981248939252880e+10  1.4939352945541368e+10  1.5017546855850121e+10  1.5000144310891027e+10  1.4942022517478973e+10  1.4936276347825468e+10  1.4987366354370216e+10  1.4944756441903290e+10  1.4959861015825819e+10  1.4981100514813406e+10  1.4914351694315287e+10  1.4938097705708218e+10  1.4991380730455542e+10  1.4901836020730198e+10  1.4959040320140453e+10  1.4932295897564894e+10  1.4902356214760208e+10  1.4977846648787939e+10  1.5026192528953577e+10  1.4897197415838997e+10  1.4985732839189814e+10  1.4910062388167849e+10  1.4952975012956020e+10  1.4950413636115513e+10  1.4967809149076225e+10  1.4949941083080915e+10  1.4988349343623835e+10  1.4916388068105316e+10  1.4984729382031912e+10  1.4906665041477571e+10  1.5016383872109495e+10  1.4932772440879343e+10  1.4929937637927216e+10  1.4919492298507156e+10  1.5016511260665634e+10  1.4922835319389210e+10  1.4901705117035051e+10  1.5038484810084217e+10  1.4904066138753458e+10  1.4955891006482319e+10  1.4911688073593832e+10  1.5057920829841387e+10  1.4924717278983948e+10  1.4935837364893749e+10  1.4997805029663485e+10  1.4954601815070997e+10  1.4970197004049873e+10  1.4975239032776411e+10  1.4918486502987522e+10  1.4957229683312244e+10  1.4966812848670887e+10  1.4925745206726233e+10  1.4989551644933228e+10  1.4918814512329185e+10  1.4943629231274776e+10  1.5016476199493053e+10  1.4869098551896034e+10  1.4970455470765606e+10  1.5030240909084627e+10  1.4923667939937708e+10  1.5021246381653395e+10  1.4954241519426586e+10  1.4955659775871386e+10  1.5001340697445932e+10  1.4961683963159225e+10  1.4903005413179663e+10  1.4988532498968361e+10  1.4958106109125830e+10  1.5013618782796452e+10  1.4971615348421253e+10  1.4965321690925003e+10  1.4989030747210169e+10  1.4913751911198189e+10  1.4935097595667265e+10  1.5014771615741608e+10  1.4991499682256754e+10  1.4956319356835688e+10  1.4982636939275656e+10  1.4930123675909079e+10  1.4980080931676954e+10  1.4959444763245687e+10  1.4910474343603037e+10  1.4997087941952267e+10  1.4925953675381037e+10  1.4950239941115480e+10  1.4963131694959112e+10  1.4992792620588268e+10  1.4943398547687342e+10  1.5051038046567108e+10  1.5009547848875977e+10  1.4901789304018669e+10  1.4955420569394468e+10  1.5012220357231873e+10  1.5026485001820736e+10  1.4973396875536621e+10  1.4952372885661074e+10  1.4983593039441174e+10  1.4954398818918467e+10  1.4919365804470470e+10  1.5005890910451984e+10  1.4995703073792006e+10  1.4955527453394983e+10  1.4994907851481268e+10  1.4899916829031717e+10  1.4958182850688774e+10  1.4931421407129923e+10  1.5006585637153538e+10  1.5006100046421766e+10  1.4979575743647856e+10  1.4896307885787704e+10  1.4988260526530327e+10  1.4953726216514111e+10  1.4914114499787687e+10  1.4943492948572336e+10  1.4935604002385630e+10  1.5002403158696611e+10  1.4941636672486162e+10  1.4960468267127546e+10  1.4966996805106092e+10  1.4893448358598772e+10  1.5003145150242687e+10  1.5019369689918497e+10  1.4968623266815767e+10  1.4963586178199461e+10  1.4964271910349539e+10  1.4939071117853899e+10  1.4912286904885891e+10  1.4952388581351736e+10  1.5045054521919565e+10  1.5011549720905031e+10  1.4987035616074251e+10  1.4982360871312906e+10  1.4864723113556124e+10  1.5004620620780481e+10  1.4895295829545979e+10  1.4990225108925943e+10  1.4951618034777178e+10  1.4987462862920280e+10  1.4930981216549984e+10  1.4943392707510500e+10  1.5039586640926880e+10  1.4945190800337368e+10  1.4926479664365238e+10  1.5070238983380489e+10  1.4903330784232754e+10  1.5000240173594767e+10  1.4982497638739878e+10  1.4984531140048992e+10  1.4879528533444353e+10  1.4943609209624649e+10  1.4924426499845551e+10  1.5001823858905151e+10  1.4943949380722998e+10  1.4982889382013779e+10  1.4984940011078051e+10  1.4919058472603470e+10  1.4950535887761269e+10  1.4988997266145042e+10  1.4987264530760723e+10  1.4950742929922480e+10  1.5033367662304392e+10  1.4941840661403566e+10  1.5027475605717236e+10  1.4974232273966379e+10  1.4970185261913254e+10  1.4961059879522846e+10  1.4951516810942421e+10  1.4995188287565088e+10  1.4937274415510307e+10  1.4977620460122629e+10  1.4941680739532282e+10  1.4940015347518433e+10  1.4967357478169930e+10  1.5005983544050575e+10  1.4918286558703424e+10  1.4922072935195509e+10  1.5011651889384230e+10  1.4997265963406824e+10  1.4910316420435093e+10  1.5008949372024448e+10  1.4961863704793194e+10  1.5002469549096464e+10  1.4971473569479462e+10  1.5029758887829870e+10  1.4894394154670595e+10  1.5005627630588919e+10  1.4895752259890375e+10  1.4913838018060511e+10  1.4959111396706711e+10  1.4925619044581568e+10  1.4945474587557775e+10  1.4969904802806561e+10  1.4974371237777885e+10  1.4998271189419760e+10  1.4928044878316599e+10  1.4942977312656956e+10  1.5030767727479128e+10  1.4918868599855701e+10  1.5041161479739124e+10  1.4969184858209852e+10  1.4940413539654463e+10  1.5010876537815813e+10  1.4920630266672682e+10  1.4970188083632132e+10  1.4959249923318066e+10  1.4958772923881882e+10  1.4940904720250135e+10  1.4885176014018179e+10  1.4925051699370230e+10  1.5000538996749071e+10  1.4912176881636095e+10  1.4922331637762295e+10  1.4955643960701284e+10  1.4914892337256023e+10  1.4937470449741316e+10  1.4936508112677967e+10  1.5024124116387119e+10  1.4956854273212564e+10  1.4976251335317387e+10  1.4986869864033064e+10  1.4960925875593102e+10  1.4957272344981455e+10  1.4908259960993883e+10  1.4972508701457228e+10  1.4939196280787910e+10  1.5025353553072697e+10  9.7525930084260254e+10  9.8432122488213425e+10  9.8696478895809204e+10  9.7981302903222748e+10  9.7542293713196793e+10  9.8224886638523483e+10  9.8100301887153091e+10  9.8972730163623581e+10  9.7360383335084015e+10  9.8205179382212189e+10  9.9980503066537354e+10  9.8102634359458801e+10  9.8163406820715637e+10  9.8251417069715652e+10  9.8488664551426651e+10  9.7326641994155762e+10  9.9478714252868973e+10  9.8315481702299622e+10  9.7933544807514893e+10  9.8607282059175583e+10  9.9707017773021210e+10  9.7731316937603210e+10  9.7197569455574356e+10  9.9184022574849182e+10  9.7051550500181931e+10  9.9462895786098038e+10  9.8214528688030991e+10  9.7282117807926834e+10  9.8924283442047852e+10  9.8505706135169159e+10  9.7032616796969650e+10  9.9069870693229187e+10  9.7149339762981842e+10  9.8558943224598557e+10  9.7868055558592819e+10  9.7817627025308792e+10  9.7107102563366928e+10  9.9148912108833176e+10  9.8211304257966537e+10  9.9394523987718597e+10  9.7768864712200623e+10  9.8817921458785675e+10  9.8829723021118362e+10  9.7755596783433228e+10  9.7285494939364441e+10  9.7828019996000565e+10  9.9043026933633026e+10  9.7874881318169067e+10  9.9052525640265366e+10  9.8200479043660843e+10  9.7778594753713242e+10  9.9887093010001404e+10  9.8529412779860046e+10  9.8868230368308502e+10  9.8997712525166656e+10  9.8215047830366104e+10  9.8292024951223862e+10  9.8311627074967331e+10  9.7529190678261902e+10  9.8370342941917099e+10  9.7453309281180298e+10  9.8762152352300659e+10  9.8377708361976700e+10  9.7913821823494003e+10  9.8298507725626572e+10  9.7872600364066910e+10  9.7977934813618027e+10  9.9274670777125977e+10  9.7918107091017807e+10  9.8101884298223373e+10  9.8142282231807785e+10  9.8133716391286545e+10  9.7709746688442810e+10  9.9123286328345673e+10  9.8455394907462814e+10  9.8712622078894852e+10  9.9090024040295380e+10  1.0053693654310156e+11  9.8116532888047455e+10  9.7928618071582947e+10  9.8655719762481277e+10  9.7915600594134033e+10  9.8663047575126343e+10  9.9352964636417755e+10  9.9025580947479553e+10  9.7305338619825226e+10  9.8896986947035095e+10  9.7299200345709671e+10  9.9285015595521805e+10  9.7794395194278503e+10  9.7926085014875168e+10  9.7802470231662537e+10  9.9005224179092407e+10  9.8215857283013000e+10  9.8930970207444031e+10  9.7984551410157822e+10  9.9092490057994186e+10  9.8422758299646118e+10  9.8302136109273514e+10  9.7869438290732452e+10  9.8532857127770920e+10  2.8149797883745934e+10  2.8315416354064980e+10  2.8232456840497696e+10  2.8189343739175060e+10  2.8146862375849812e+10  2.8373225838784267e+10  2.8048863607484505e+10  2.8143346801374126e+10  2.8007658124775188e+10  2.8264605917984158e+10  2.8266508127449638e+10  2.8353938101394684e+10  3.4704473478408813e+10  3.8515085277451416e+10  2.1620704316822647e+10  2.2807324458563599e+10  4.0436682902327858e+10  2.1356088415199215e+10  2.2199820263954212e+10  2.2078887392801491e+10  2.2175627095071098e+10  2.2126241634241455e+10  2.2228551964111759e+10  2.2086977436990875e+10  2.2060214330424252e+10  2.2077345615556133e+10  2.1989313379663498e+10  2.1534586138665749e+10  4.0311367480458527e+10  4.0293502028158432e+10  3.8611818416939812e+10  4.0522425438535416e+10  3.9869330537374657e+10  3.8166173660937668e+10  4.0046052243019539e+10  3.8278846870906380e+10  3.7694234859760422e+10  2.0199589241336430e+10  1.9852770778311329e+10  1.9839680254262482e+10  1.9600286672910427e+10  1.9753076132329815e+10  1.9629230810099995e+10  1.9676146495738621e+10  1.9690072378621624e+10  1.9750772642694633e+10  1.9620178268357552e+10  1.9689603427142239e+10  1.9801079879751854e+10  1.9578071590446724e+10  4.6335041976239395e+10  4.6507946641276733e+10  4.7633892572405396e+10  4.7626012527321045e+10  4.8129377780535561e+10  4.7873200328732338e+10  4.6583652443975349e+10  4.7572221326709785e+10  4.7505338425799072e+10  4.7444577847304070e+10  4.8039101368186188e+10  4.7111637997639923e+10  2.0311770956711624e+10  1.9384072794710972e+10  2.0932430035689060e+10  2.1024020459133686e+10  1.9188902508083149e+10  1.9270897014965637e+10  2.6650216377742153e+10  1.8940261028770161e+10  1.8994095090384144e+10  1.8864052843074883e+10  1.8648823097460007e+10  5.4710522016806541e+10  2.8816497269685078e+10  2.9567897814766956e+10  1.8701950456305119e+10  1.8371922663092808e+10  1.8161107075363087e+10  2.9595001000686352e+10  1.8142580835460648e+10  5.4932404549444199e+10  1.8073414504324200e+10  1.8085512067512886e+10  2.8555559214571220e+10  1.7937116073496754e+10  1.7950110776922581e+10  1.7915010467608295e+10  1.7944653899850815e+10  1.8028209398034206e+10  1.8025275983765259e+10  1.7998223774266830e+10  5.6878635762695068e+10  1.8012959781655174e+10  1.8033766834428772e+10  5.7123611733671104e+10  2.4172561083609516e+10  2.4721426872084549e+10  1.7829047639717266e+10  5.8468492902587692e+10  5.4342083040681694e+10  2.7742095367324203e+10  2.8617358129778793e+10  2.8788660760808098e+10  2.7969571394845478e+10  2.3950339997892395e+10  2.4595737185940186e+10  2.8636229378971703e+10  2.4615350628992378e+10  2.4697425957137287e+10  2.4527061059516941e+10  2.5402250904606461e+10  2.4587152626252678e+10  2.4384898305325230e+10  2.8128539331455494e+10  5.7544595452627731e+10  2.4104887907209629e+10  2.4011061065697464e+10  1.7938351809706974e+10  3.5289327963663994e+10  3.4433520747160263e+10  5.8021393325276115e+10  1.8390884815732002e+10  1.8432297303492908e+10  2.3552964700204163e+10  3.8362115220395325e+10  2.8705774300347874e+10  2.8969900020108826e+10  5.9016257401712242e+10  5.8817290135246384e+10  5.8258313668876633e+10  5.8662646278905510e+10  5.8968481726197548e+10  1.7677749093090092e+10  5.8774169024957893e+10  5.8632293404276451e+10  1.7606738889923870e+10  1.7662520726893978e+10  1.7537425662728378e+10  1.8398423581049759e+10  3.2501280257818508e+10  3.5297603566256622e+10  3.5330221098365662e+10  3.5348385898804764e+10  3.2528294559512562e+10  3.5144255187384911e+10  3.5595440436274010e+10  2.4920367079150963e+10  2.3540494401226665e+10  2.3119853871226387e+10  3.5385288421797112e+10  1.7520589617040131e+10  3.1946949330650539e+10  3.5665213188973152e+10  3.6465586451042358e+10  2.7936968752258793e+10  3.1915198357337570e+10  1.7748056321551411e+10  2.2198861747222366e+10  3.5644657344525444e+10  1.8622495442900288e+10  3.5958838277708443e+10  5.4390741219645439e+10  5.4615817082917847e+10  5.4277016140735336e+10  2.7694226605251240e+10  1.7450524469816280e+10  5.1766795135774529e+10  3.6487978685138489e+10  2.2188292055741905e+10  4.0399251676045586e+10  3.5878148529558640e+10  2.8913482452125256e+10  3.5841254882891861e+10  3.5562040411567238e+10  1.7561802358623112e+10  2.8656811557457329e+10  2.3595635261058659e+10  1.7447184459594276e+10  1.7350999376594894e+10  6.1734612899544907e+10  6.1636474423790398e+10  1.7210876006489845e+10  1.7472462835431519e+10  2.3350346386767384e+10  2.9207973758434277e+10  4.0070805467576782e+10  1.7008451798023342e+10  2.2167125435433796e+10  2.3141631372803471e+10  6.1598755504842651e+10  2.1201360727035736e+10  6.3505373536332375e+10  6.3251717144858246e+10  2.1475654932373123e+10  1.7254729102716381e+10  1.7356272074666065e+10  2.2704136774768024e+10  2.2779865869105724e+10  1.7147073906219645e+10  3.4361736122114159e+10  1.7063858526611965e+10  1.7314229190897091e+10  1.7334439142448009e+10  1.7101564733940397e+10  6.5207266880212364e+10  1.7135514539621731e+10  2.7082940756305428e+10  2.2426011267183750e+10  1.7007445209622957e+10  1.7080209225898195e+10  1.6980878772716290e+10  1.7051170794596951e+10  1.7151649835577991e+10  1.7003612948550989e+10  2.7333089643929874e+10  1.7097525424788506e+10  2.1014766776370064e+10  2.4174705799501984e+10  2.2580475447950436e+10  2.3972479506579350e+10  4.2166629637494606e+10  3.7301777661626099e+10  3.7460825272017990e+10  3.4518843887238976e+10  1.7031412812090832e+10  1.7973102590632160e+10  1.7001045429332306e+10  1.7063277176756659e+10  1.7052840031733528e+10  2.3174132439649620e+10  2.3103128019156548e+10  2.3071788805310516e+10  2.0681208167998745e+10  2.1676091070543396e+10  2.0726804775072212e+10  6.5163435951297813e+10  2.3137639233191673e+10  6.7013103704722878e+10  1.6865473406315447e+10  6.1865384691042839e+10  6.5755185193636772e+10  6.6201337107129845e+10  6.5900186363265770e+10  6.6815233545212364e+10  6.6269074651399048e+10  4.2295835289348274e+10  6.5722752348650490e+10  3.5905646561208412e+10  3.5922279454163521e+10  4.0975728498327766e+10  2.3942798564337864e+10  2.0860687018355148e+10  6.6321788948702591e+10  2.0898066919066956e+10  1.6816742013199497e+10  1.6814762842826944e+10  6.4747793007125885e+10  2.1450846169662891e+10  2.7661873484420334e+10  1.6729971559679197e+10  2.9181914116434944e+10  2.1311262851005119e+10  4.5824435449121826e+10  4.5838783019248688e+10  2.0857219159086689e+10  4.4567128178412552e+10  3.5606138889947540e+10  1.6797934314431555e+10  1.6855541041926712e+10  2.0783349594252956e+10  2.1156550950917656e+10  2.0785126068526608e+10  2.6523245915114002e+10  1.6662021343855389e+10  4.4677119649543671e+10  3.6649969591096558e+10  1.9827090309783024e+10  1.9496080348506130e+10  2.0976750039286736e+10  1.9976375451202374e+10  2.1162549451917053e+10  2.5447132310996925e+10  2.3618455587723095e+10  2.4846299235607460e+10  1.8753555574479523e+10  1.6675905015896891e+10  2.1361305736056625e+10  6.8088118809605049e+10  2.0458472634250706e+10  4.4843405062102661e+10  2.8949564533752590e+10  3.6838235236577820e+10  1.6729784593712925e+10  2.0916072821552002e+10  2.0904921271654324e+10  1.6897694282140427e+10  2.0096802515749996e+10  1.9993836267883461e+10  2.3097000776927258e+10  2.5038801732626900e+10  3.4767294322756912e+10  1.6695929987189470e+10  4.4974019737197777e+10  2.0167094146529259e+10  4.4182740811526062e+10  2.5755301701724922e+10  4.0955651367085556e+10  4.5196617626782265e+10  3.3111209687285355e+10  4.8946998909642654e+10  5.0387424031630684e+10  2.5263405196188110e+10  1.6658918102480711e+10  6.7761214815860405e+10  2.8744789520414673e+10  1.6542519371840893e+10  2.0636603775578751e+10  1.6645874089066975e+10  2.7982395223331810e+10  1.6669224395659195e+10  1.6585100279546764e+10  2.8817075612041061e+10  2.5556054864999268e+10  4.4814472390562645e+10  6.9253461133307648e+10  1.9164145067076630e+10  1.6707624689112129e+10  2.0721905667649181e+10  4.8077983172551697e+10  1.9027346687808853e+10  5.0593249552822334e+10  1.6708076667075472e+10  2.4030055117364571e+10  2.0668516070948540e+10  1.6737572971200996e+10  2.0336306971896576e+10  3.1083080157408234e+10  2.4419060981520859e+10  4.5039944979597809e+10  1.9755892198972580e+10  2.7251879713786106e+10  1.7182420982509506e+10  4.3731147222914352e+10  2.0027746030640854e+10  3.0263648239315521e+10  2.8906857531672836e+10  2.2183568790555984e+10  2.2548471224095272e+10  1.9542766418753323e+10  2.8770645296691517e+10  3.1394980511682358e+10  1.9065131583596188e+10  3.2822314880359901e+10  4.2267150245166306e+10  2.2600873647314430e+10  2.9001589656467907e+10  5.0072403790595100e+10  3.5254236399110390e+10  2.9341926186426193e+10  3.0370187325919907e+10  1.9303491468539883e+10  2.9782563645978573e+10  2.7000125065269505e+10  1.8744032433900375e+10  2.3544226589374382e+10  7.1865378446867249e+10  6.9351153209464661e+10  7.0432350117786255e+10  1.9494197500187523e+10  7.1719498535115143e+10  3.3719290456275730e+10  1.9056537795141640e+10  6.8645840747168579e+10  2.7822445078874691e+10  1.8875478723075424e+10  1.6519494059083445e+10  1.8900374081293060e+10  2.5557211987008064e+10  1.6543625196397993e+10  2.3847681851014797e+10  7.1619783445198578e+10  4.1106206305770897e+10  2.4449634779554771e+10  3.0206948731411083e+10  4.3805126032697823e+10  1.6406066129614029e+10  4.2871593331218109e+10  5.2270411932626030e+10  7.1738583608459396e+10  2.9418083564079548e+10  1.6511103545095907e+10  1.7287797732861088e+10  1.6436125370942995e+10  1.6479992471097672e+10  3.2786415819207207e+10  1.6627365051283201e+10  1.6512276080197611e+10  2.4465991882985905e+10  2.5603323237977318e+10  2.2601084237270046e+10  1.9799899654424709e+10  3.3953365066251179e+10  7.1520465703558243e+10  1.6760799033711550e+10  7.0802850977696121e+10  2.9614178981531200e+10  1.7434878687114735e+10  1.6462285731697420e+10  5.2085690082750214e+10  3.4938822674764641e+10  3.2731252820506603e+10  5.0926520054835442e+10  1.9085237212865658e+10  2.9061411725361744e+10  3.4868827434521309e+10  1.8953767810565060e+10  1.6546688798346674e+10  1.7736054397897842e+10  1.6974123424302896e+10  7.1174679045789948e+10  2.7833369457846779e+10  7.2427890542375427e+10  1.7731970484272282e+10  3.3882663061843567e+10  1.8214271122576626e+10  1.6331406497954702e+10  1.6575495413585699e+10  1.6402049751710091e+10  2.0183840113369144e+10  2.0254416752133804e+10  4.3882140403650337e+10  4.4366753064776756e+10  3.4342116640256649e+10  2.5018351758808147e+10  1.6340307097571898e+10  1.6377889333039654e+10  1.6359816156558289e+10  1.6297247908108234e+10  7.0515534410811859e+10  2.5733639826244144e+10  3.3556383096959377e+10  1.6266486811347843e+10  1.6450009894730606e+10  1.6436877837331434e+10  1.6400459971797853e+10  3.4531256371277557e+10  2.0531066346502407e+10  3.7480294633401566e+10  1.6433086864835600e+10  1.6418285957706543e+10  3.1628679855273861e+10  2.5667567595388596e+10  2.4635960567583176e+10  2.9593045132840492e+10  7.2903141307056946e+10  7.2715400736361481e+10  3.8152384212703972e+10  5.1136616416891869e+10  1.9148745573524891e+10  4.9565242366785454e+10  5.8156297895210915e+10  2.8200006140868271e+10  7.2749226366055023e+10  3.3404227753304062e+10  1.9871716011501534e+10  1.8621628412689342e+10  3.3616362685002262e+10  1.9767399987285290e+10  4.6128350006341080e+10  1.8953609775000389e+10  1.8626293834258324e+10  2.4845867838682606e+10  3.2146321082740234e+10  4.5530070846359184e+10  1.9890120578912884e+10  3.7572613