<?xml version="1.0"?>
<VTKFile type="UnstructuredGrid"  version="0.1"  >
<UnstructuredGrid>
<Piece  NumberOfPoints="10909" NumberOfCells="21162">
<Points>
<DataArray  type="Float64"  NumberOfComponents="3"  format="ascii">-0.09999216720722226 0.001251597859899349 0  -0.09999216720722226 -0.001251597859899324 0  -0.09992951222712528 -0.003754009329879275 0  -0.09980424152647172 -0.006254068541813297 0  -0.09961643359974248 -0.008750208961396265 0  -0.0993662061271743 -0.01124086650983409 0  -0.09905371590102154 -0.01372448054389361 0  -0.09867915872731027 -0.01619949483379979 0  -0.09824276930314649 -0.01866435853836769 0  -0.09774482106965511 -0.02111752717675784 0  -0.09718562604064213 -0.02355746359624618 0  -0.09656553460708706 -0.0259826389354021 0  -0.0958849353175884 -0.02839153358207142 0  -0.09514425463489948 -0.03078263812556374 0  -0.09434395666870733 -0.03315445430244742 0  -0.09348454288482222 -0.03550549593535961 0  -0.09256655179095953 -0.03783428986424361 0  -0.09159055859931162 -0.04013937686942917 0  -0.09055717486612039 -0.04241931258597781 0  -0.08946704810847689 -0.04467266840872038 0  -0.08832086139858776 -0.04689803238741953 0  -0.08711933293576302 -0.04909401011149607 0  -0.08586321559639315 -0.051259225583765 0  -0.08455329646219767 -0.05339232208263388 0  -0.08319039632704039 -0.05549196301222316 0  -0.0817753691826212 -0.05755683273987554 0  -0.08030910168336558 -0.05958563742052986 0  -0.07879251259084807 -0.06157710580744316 0  -0.07722655219809717 -0.06352999004875236 0  -0.07561220173414296 -0.0654430664693768 0  -0.07395047274917997 -0.0673151363377717 0  -0.07224240648073096 -0.06914502661705209 0  -0.0704890732012087 -0.07093159070001633 0  -0.06869157154728435 -0.07267370912760898 0  -0.06685102783148329 -0.07437029029037232 0  -0.06496859533643848 -0.07602027111244807 0  -0.06304545359224527 -0.07762261771769907 0  -0.06108280763736874 -0.07917632607753537 0  -0.05908188726356842 -0.080680422640037 0  -0.05704394624531189 -0.08213396493998064 0  -0.05497026155416092 -0.08353604218938757 0  -0.05286213255862293 -0.08488577584822193 0  -0.05072088020996789 -0.08618232017488325 0  -0.04854784621452173 -0.08742486275614705 0  -0.04634439219295482 -0.08861262501622209 0  -0.0441118988270916 -0.08974486270460519 0  -0.0418517649947774 -0.09082086636242756 0  -0.0395654068933429 -0.09183996176700104 0  -0.03725425715221625 -0.09280151035428542 0  -0.0349197639352395 -0.09370490961901168 0  -0.03256339003325057 -0.09454959349221126 0  -0.03018661194749989 -0.09533503269591435 0  -0.02779091896447685 -0.09606073507479465 0  -0.0253778122227242 -0.09672624590455349 0  -0.02294880377222645 -0.09733114817684957 0  -0.02050541562696112 -0.0978750628605958 0  -0.01804917881120608 -0.09835764913945998 0  -0.01558163240020206 -0.09877860462541965 0  -0.01310432255576947 -0.09913766554823829 0  -0.01061880155748498 -0.09943460692074342 0  -0.008126626830025281 -0.09966924267980326 0  -0.00562935996728636 -0.09984142580291366 0  -0.003128565753890103 -0.09995104840032237 0  -0.0006258111846929931 -0.0999980417826325 0  0.001877335517092352 -0.09998237650384323 0  0.004379305882543121 -0.09990406237980078 0  0.006878532179827535 -0.09976314848204761 0  0.009373448396544122 -0.09955972310707441 0  0.01186249122098281 -0.09929391372099353 0  0.01434410102169454 -0.09896588687966891 0  0.0168167228247549 -0.09857584812435229 0  0.01927880728810846 -0.09812404185289136 0  0.02172881167238507 -0.09761075116659038 0  0.02416520080757896 -0.09703629769281898 0  0.02658644805498359 -0.09640104138348123 0  0.02899103626378299 -0.09570538028946973 0  0.03137745872169579 -0.09494975031124768 0  0.03374422009907978 -0.09413462492571403 0  0.03608983738590409 -0.0932605148895233 0  0.0384128408210011 -0.09232796791904624 0  0.04071177481301732 -0.0913375683471712 0  0.04298519885248568 -0.09028993675716174 0  0.04523168841444655 -0.08918572959380006 0  0.04744983585105387 -0.08802563875205931 0  0.0496382512736056 -0.08681039114356295 0  0.05179556342344641 -0.08554074824110286 0  0.05392042053119698 -0.08421750560150111 0  0.05601149116377094 -0.08284149236711523 0  0.05806746505864942 -0.08141357074629837 0  0.06008705394489031 -0.07993463547314045 0  0.062068992350357 -0.07840561324682899 0  0.06401203839466206 -0.0768274621509803 0  0.06591497456732821 -0.07520117105330526 0  0.0677766084906786 -0.07352775898598621 0  0.06959577366697992 -0.07180827450715208 0  0.07137133020936784 -0.07004379504385366 0  0.07310216555609947 -0.06823542621694852 0  0.07478719516768322 -0.06638430114832015 0  0.07642536320644966 -0.06449157975086556 0  0.07801564319813849 -0.06255844800169477 0  0.07955703867508632 -0.06058611719899883 0  0.08104858380061176 -0.05857582320305206 0  0.08248934397420797 -0.05652882566182319 0  0.0838784164171622 -0.05444640722168118 0  0.08521493073823577 -0.05232987272369083 0  0.08649804947905057 -0.05018054838600033 0  0.08772696863883907 -0.04799978097283517 0  0.0889009181782307 -0.04578893695061648 0  0.09001916250175765 -0.04354940163173486 0  0.09108100091877785 -0.04128257830651554 0  0.09208576808252723 -0.03898988736391795 0  0.0930328344070252 -0.03667276540152144 0  0.09392160646157242 -0.03433266432535521 0  0.09475152734259386 -0.0319710504401355 0  0.09552207702259409 -0.02958940353048034 0  0.09623277267600569 -0.02718921593367883 0  0.09688316898172744 -0.02477199160459344 0  0.0974728584021618 -0.02233924517328454 0  0.09800147143857771 -0.01989250099594415 0  0.09846867686263801 -0.0174332921997361 0  0.09887418192394669 -0.01496315972214073 0  0.09921773253348604 -0.01248365134540491 0  0.09949911342282847 -0.009996320726703157 0  0.09971814827902359 -0.007502726424618317 0  0.09987469985507552 -0.005004430922550236 0  0.09996867005594191 -0.002502999649665144 0  0.1 0 0  0.09996867005594191 0.002502999649665096 0  0.09987469985507554 0.005004430922550164 0  0.09971814827902359 0.007502726424618309 0  0.09949911342282848 0.009996320726703126 0  0.09921773253348604 0.01248365134540486 0  0.09887418192394669 0.01496315972214074 0  0.09846867686263801 0.01743329219973608 0  0.09800147143857772 0.01989250099594411 0  0.0974728584021618 0.02233924517328456 0  0.09688316898172744 0.02477199160459344 0  0.09623277267600572 0.02718921593367872 0  0.0955220770225941 0.0295894035304803 0  0.09475152734259389 0.03197105044013543 0  0.09392160646157242 0.0343326643253552 0  0.09303283440702523 0.0366727654015214 0  0.09208576808252726 0.0389898873639179 0  0.09108100091877785 0.04128257830651555 0  0.09001916250175765 0.04354940163173485 0  0.08890091817823072 0.04578893695061644 0  0.08772696863883905 0.04799978097283519 0  0.08649804947905056 0.05018054838600035 0  0.08521493073823583 0.05232987272369073 0  0.08387841641716223 0.05444640722168113 0  0.082489343974208 0.05652882566182314 0  0.08104858380061178 0.05857582320305206 0  0.07955703867508633 0.06058611719899881 0  0.07801564319813853 0.06255844800169473 0  0.07642536320644966 0.06449157975086556 0  0.07478719516768322 0.06638430114832015 0  0.0731021655560995 0.06823542621694849 0  0.07137133020936781 0.07004379504385369 0  0.0695957736669799 0.07180827450715209 0  0.06777660849067867 0.07352775898598612 0  0.06591497456732824 0.07520117105330523 0  0.06401203839466212 0.07682746215098026 0  0.06206899235035701 0.07840561324682899 0  0.06008705394489031 0.07993463547314045 0  0.05806746505864946 0.08141357074629835 0  0.05601149116377094 0.08284149236711523 0  0.05392042053119699 0.08421750560150111 0  0.05179556342344643 0.08554074824110285 0  0.04963825127360558 0.08681039114356297 0  0.04744983585105388 0.08802563875205929 0  0.04523168841444657 0.08918572959380004 0  0.04298519885248572 0.09028993675716171 0  0.04071177481301738 0.09133756834717116 0  0.0384128408210011 0.09232796791904624 0  0.03608983738590412 0.0932605148895233 0  0.03374422009907983 0.09413462492571401 0  0.03137745872169577 0.09494975031124768 0  0.02899103626378299 0.09570538028946973 0  0.02658644805498361 0.09640104138348121 0  0.02416520080757892 0.09703629769281899 0  0.02172881167238516 0.09761075116659035 0  0.01927880728810846 0.09812404185289136 0  0.01681672282475495 0.09857584812435227 0  0.01434410102169461 0.0989658868796689 0  0.01186249122098281 0.09929391372099353 0  0.009373448396544148 0.09955972310707439 0  0.006878532179827604 0.09976314848204761 0  0.004379305882543101 0.09990406237980078 0  0.001877335517092354 0.09998237650384323 0  -0.0006258111846929686 0.0999980417826325 0  -0.003128565753890144 0.09995104840032237 0  -0.005629359967286269 0.09984142580291366 0  -0.008126626830025279 0.09966924267980326 0  -0.01061880155748493 0.09943460692074342 0  -0.01310432255576943 0.09913766554823829 0  -0.01558163240020205 0.09877860462541965 0  -0.01804917881120606 0.09835764913945998 0  -0.02050541562696107 0.09787506286059582 0  -0.02294880377222647 0.09733114817684957 0  -0.0253778122227242 0.09672624590455349 0  -0.02779091896447682 0.09606073507479465 0  -0.03018661194749985 0.09533503269591437 0  -0.03256339003325048 0.0945495934922113 0  -0.03491976393523949 0.09370490961901168 0  -0.0372542571522162 0.09280151035428545 0  -0.03956540689334286 0.09183996176700107 0  -0.04185176499477741 0.09082086636242755 0  -0.04411189882709158 0.0897448627046052 0  -0.04634439219295476 0.08861262501622214 0  -0.04854784621452175 0.08742486275614705 0  -0.0507208802099679 0.08618232017488325 0  -0.05286213255862291 0.08488577584822195 0  -0.05497026155416086 0.08353604218938761 0  -0.05704394624531183 0.08213396493998068 0  -0.0590818872635684 0.080680422640037 0  -0.06108280763736872 0.07917632607753539 0  -0.06304545359224521 0.07762261771769911 0  -0.06496859533643849 0.07602027111244805 0  -0.06685102783148326 0.07437029029037233 0  -0.06869157154728432 0.072673709127609 0  -0.07048907320120865 0.07093159070001638 0  -0.07224240648073095 0.06914502661705212 0  -0.07395047274917996 0.06731513633777172 0  -0.07561220173414293 0.0654
[...]
<PointData  Scalars="von Mises Stress [Pa]"> 
<DataArray  type="Float64"  Name="von Mises Stress [Pa]"  format="ascii">1.4981587553760080e+10  1.4927833323088430e+10  1.4919767374152822e+10  1.4922151686653582e+10  1.4930379663002308e+10  1.4969364542841572e+10  1.4984742596329798e+10  1.4958642411579424e+10  1.4954102108529167e+10  1.4994794759300928e+10  1.5013293575820679e+10  1.4999899749309166e+10  1.4895454041434937e+10  1.4905728649256632e+10  1.4979425368829462e+10  1.4951349128184608e+10  1.4895097886382765e+10  1.4926458891895130e+10  1.4985446135701063e+10  1.4899007804025282e+10  1.4932029744189510e+10  1.4972120305152172e+10  1.4974258556398211e+10  1.5021338464698507e+10  1.4941699704461636e+10  1.4981249642913609e+10  1.4939353586141735e+10  1.5017548233064142e+10  1.5000145117633558e+10  1.4942024467398794e+10  1.4936277620962955e+10  1.4987367546015894e+10  1.4944757732180161e+10  1.4959862443634398e+10  1.4981101986646322e+10  1.4914353321065449e+10  1.4938099110434004e+10  1.4991381971678881e+10  1.4901837988341948e+10  1.4959041277199099e+10  1.4932297710837639e+10  1.4902358214584684e+10  1.4977848053252213e+10  1.5026194219280756e+10  1.4897199022793709e+10  1.4985734283991011e+10  1.4910064332228348e+10  1.4952976384338467e+10  1.4950415424343367e+10  1.4967810502816381e+10  1.4949942967968229e+10  1.4988351338117525e+10  1.4916390014467896e+10  1.4984731053133976e+10  1.4906667076635761e+10  1.5016385278758430e+10  1.4932774624226891e+10  1.4929939881153032e+10  1.4919494291062593e+10  1.5016513306698816e+10  1.4922837698213444e+10  1.4901706386671196e+10  1.5038487247956335e+10  1.4904068260535387e+10  1.4955893276594936e+10  1.4911690285261541e+10  1.5057922460700796e+10  1.4924719564606253e+10  1.4935839855254429e+10  1.4997807157806801e+10  1.4954603690282688e+10  1.4970199119593840e+10  1.4975241473305428e+10  1.4918489202922932e+10  1.4957232438471657e+10  1.4966814798843475e+10  1.4925747692410589e+10  1.4989553812357370e+10  1.4918816664383610e+10  1.4943630989141644e+10  1.5016478136596870e+10  1.4869100559096823e+10  1.4970457837459793e+10  1.5030242412711689e+10  1.4923669538677177e+10  1.5021248076969864e+10  1.4954243473920923e+10  1.4955663080776451e+10  1.5001345586438742e+10  1.4961684611404451e+10  1.4903011044208055e+10  1.4988527758405861e+10  1.4958107806892902e+10  1.5013621815694750e+10  1.4971615177076073e+10  1.4965322899713335e+10  1.4989031305805683e+10  1.4913753706485453e+10  1.4935098439045658e+10  1.5014773456617243e+10  1.4991500984595686e+10  1.4956319207212561e+10  1.4982636249912682e+10  1.4930123848380648e+10  1.4980080691396690e+10  1.4959444689276316e+10  1.4910470580176207e+10  1.4997088583447786e+10  1.4925946971238974e+10  1.4950227303663452e+10  1.4963129318221371e+10  1.4992780413127533e+10  1.4943420214879524e+10  1.5050918682022087e+10  1.5009512566564497e+10  1.4901761039601519e+10  1.4955315756033165e+10  1.5012422217239487e+10  1.5026672725972727e+10  1.4973390940016388e+10  1.4952280010765471e+10  1.4983558323711395e+10  1.4954236920925171e+10  1.4919336042323084e+10  1.5005916956378935e+10  1.4995849409381746e+10  1.4955651182069443e+10  1.4994888780874063e+10  1.4899928923987144e+10  1.4958156317972776e+10  1.4931425535133575e+10  1.5006629944513029e+10  1.5006127644631212e+10  1.4979553585048605e+10  1.4896322728442282e+10  1.4988249043247458e+10  1.4953726065003527e+10  1.4914127721912508e+10  1.4943503490079779e+10  1.4935605894881632e+10  1.5002401009747068e+10  1.4941636177002722e+10  1.4960466994375843e+10  1.4966995769591932e+10  1.4893446945784897e+10  1.5003144349929127e+10  1.5019369876651371e+10  1.4968622347755789e+10  1.4963584840416260e+10  1.4964270535177114e+10  1.4939069585198286e+10  1.4912285083868637e+10  1.4952386624981234e+10  1.5045052364493980e+10  1.5011548541022873e+10  1.4987034679176064e+10  1.4982359568989063e+10  1.4864720975684896e+10  1.5004619394499756e+10  1.4895294147143581e+10  1.4990223936443371e+10  1.4951617061878113e+10  1.4987461720556540e+10  1.4930979506087887e+10  1.4943390853447117e+10  1.5039585910416769e+10  1.4945190087868742e+10  1.4926477749472376e+10  1.5070237657857414e+10  1.4903329524352409e+10  1.5000239051588020e+10  1.4982496579636745e+10  1.4984530165432926e+10  1.4879527104314587e+10  1.4943607717726936e+10  1.4924425154971008e+10  1.5001823181346281e+10  1.4943948372690100e+10  1.4982888620781084e+10  1.4984939265120836e+10  1.4919057529878868e+10  1.4950534990836218e+10  1.4988996359377224e+10  1.4987264020455627e+10  1.4950742076630621e+10  1.5033366645412104e+10  1.4941839452203857e+10  1.5027475306156477e+10  1.4974231529784960e+10  1.4970185059944370e+10  1.4961058782154394e+10  1.4951516552037243e+10  1.4995187785755039e+10  1.4937274193867884e+10  1.4977620132433428e+10  1.4941680167202595e+10  1.4940014543278122e+10  1.4967357123532703e+10  1.5005983543496908e+10  1.4918286226716888e+10  1.4922072590102489e+10  1.5011651332636787e+10  1.4997265969373293e+10  1.4910316558811779e+10  1.5008949287646208e+10  1.4961863786954660e+10  1.5002469584340338e+10  1.4971473314719788e+10  1.5029758668314350e+10  1.4894393807732365e+10  1.5005627636721161e+10  1.4895752207253254e+10  1.4913837534234997e+10  1.4959111317861353e+10  1.4925618956057234e+10  1.4945474299059746e+10  1.4969904977354139e+10  1.4974371585630529e+10  1.4998271284916109e+10  1.4928044924500437e+10  1.4942977235921005e+10  1.5030767942832878e+10  1.4918868601750038e+10  1.5041162297281036e+10  1.4969185697600039e+10  1.4940413832621044e+10  1.5010876397808922e+10  1.4920630257212229e+10  1.4970188183462168e+10  1.4959250052001701e+10  1.4958773424228491e+10  1.4940904560426569e+10  1.4885176047102800e+10  1.4925051669277981e+10  1.5000539536530491e+10  1.4912177135747204e+10  1.4922331855149763e+10  1.4955644274439493e+10  1.4914892868995903e+10  1.4937470634587643e+10  1.4936508194947750e+10  1.5024124605854288e+10  1.4956855122442123e+10  1.4976251372066544e+10  1.4986870308045322e+10  1.4960926427011402e+10  1.4957272729939676e+10  1.4908260743502058e+10  1.4972509658062401e+10  1.4939196749120890e+10  1.5025354013113033e+10  9.7519382075888962e+10  9.8404330802299179e+10  9.8719491772093384e+10  9.7988139802963303e+10  9.7528322902661346e+10  9.8236863878498993e+10  9.8100262052818176e+10  9.8973983395052826e+10  9.7360604633100327e+10  9.8204433636537735e+10  9.9979670604476456e+10  9.8102139155510101e+10  9.8163523159705688e+10  9.8251082624730865e+10  9.8488454201924896e+10  9.7326493711636093e+10  9.9478832799942551e+10  9.8315525191058563e+10  9.7933529617032379e+10  9.8607283568417191e+10  9.9707030671495331e+10  9.7731293910084442e+10  9.7197516560924515e+10  9.9183981112458252e+10  9.7051524848131592e+10  9.9462922104516068e+10  9.8214478360573181e+10  9.7282140108545273e+10  9.8924313608776733e+10  9.8505600358407684e+10  9.7032606170106140e+10  9.9069834453411621e+10  9.7149419697594269e+10  9.8558938368280609e+10  9.7868024954888824e+10  9.7817512970620605e+10  9.7107172111669373e+10  9.9148917320687195e+10  9.8211225939381165e+10  9.9394502444260452e+10  9.7768820435872589e+10  9.8817896741337494e+10  9.8829741274042221e+10  9.7755551178832703e+10  9.7285508019885818e+10  9.7828013657463028e+10  9.9042997270804306e+10  9.7874913616322571e+10  9.9052551914836807e+10  9.8200410792436798e+10  9.7778554033074310e+10  9.9887084181299438e+10  9.8529424524895325e+10  9.8868181219436539e+10  9.8997703208221466e+10  9.8215054669766769e+10  9.8292009309803116e+10  9.8311628834807846e+10  9.7529158532777420e+10  9.8370348239408554e+10  9.7453309123742126e+10  9.8762131461166977e+10  9.8377680034091690e+10  9.7913791374369019e+10  9.8298519464343033e+10  9.7872632055568771e+10  9.7977868405075272e+10  9.9274691566083893e+10  9.7918037850151657e+10  9.8101956203053848e+10  9.8142239747538300e+10  9.8133742336069672e+10  9.7709747200758438e+10  9.9123286620418732e+10  9.8455463533351669e+10  9.8712666775456650e+10  9.9090146433157700e+10  1.0053694261756203e+11  9.8116555491493561e+10  9.7928759573617538e+10  9.8655831120364639e+10  9.7915644241160950e+10  9.8663119052054794e+10  9.9352976243164459e+10  9.9025660052997421e+10  9.7305335789143234e+10  9.8897056112640472e+10  9.7299186055106842e+10  9.9285148801142288e+10  9.7794495629991547e+10  9.7926207942979813e+10  9.7802250191570740e+10  9.9005440799859116e+10  9.8215684605498550e+10  9.8931319669298447e+10  9.7984436983744995e+10  9.9093102233517532e+10  9.8423588478585144e+10  9.8302512075285950e+10  9.7867942263015396e+10  9.8536397013781036e+10  2.8149791961252903e+10  2.8315438602567562e+10  2.8232452838760223e+10  2.8189352136374569e+10  2.8146853779792374e+10  2.8373223527401981e+10  2.8048858991257915e+10  2.8143340695819061e+10  2.8007671257555927e+10  2.8265301354551743e+10  2.8266508607947052e+10  2.8353936317703743e+10  3.4703437679306877e+10  3.8515086124440575e+10  2.1620704859785343e+10  2.2807328640473110e+10  4.0436650787103294e+10  2.1355921609670078e+10  2.2199821363141953e+10  2.2078887050738197e+10  2.2175630808044422e+10  2.2126216221540577e+10  2.2228553631459942e+10  2.2086976212882427e+10  2.2060142445420910e+10  2.2077347099171913e+10  2.1989313365027832e+10  2.1534611706090401e+10  4.0310300328760399e+10  4.0293524014248314e+10  3.8611683869275085e+10  4.0522441539198654e+10  3.9869335940888329e+10  3.8166177498586586e+10  4.0046139497741455e+10  3.8278741856146675e+10  3.7694249699896034e+10  2.0199590073011559e+10  1.9852769997903542e+10  1.9839679924041111e+10  1.9600287352340221e+10  1.9753082734322899e+10  1.9629232506510624e+10  1.9676141282849167e+10  1.9690072742887665e+10  1.9750773130433937e+10  1.9620179853317104e+10  1.9689612292036648e+10  1.9801078703493095e+10  1.9578072488480663e+10  4.6333688290067863e+10  4.6427344610134415e+10  4.7633889004585854e+10  4.7626112222735229e+10  4.8129377288200851e+10  4.7873135535753761e+10  4.6583632907502373e+10  4.7572279861651131e+10  4.7505365004058578e+10  4.7444651658125671e+10  4.8039240134689880e+10  4.7111565329112099e+10  2.0311772542616657e+10  1.9384073073519012e+10  2.0932431884496513e+10  2.1024021924888912e+10  1.9188904318010796e+10  1.9270897903066879e+10  2.6650213532040962e+10  1.8940262297370514e+10  1.8994096270602360e+10  1.8864226876393158e+10  1.8648819897592308e+10  5.4727961800860275e+10  2.8816360670101280e+10  2.9567921523625301e+10  1.8701950947883064e+10  1.8371789302999641e+10  1.8161107192447582e+10  2.9595004096113853e+10  1.8142582914848164e+10  5.4933343251944542e+10  1.8073414691173576e+10  1.8085512685466217e+10  2.8555565736183750e+10  1.7937118581100357e+10  1.7950111923192436e+10  1.7915008993098049e+10  1.7944653587754185e+10  1.8028208110028053e+10  1.8025298791120861e+10  1.7998219498924030e+10  5.6878625710184280e+10  1.8012960533872047e+10  1.8033767651476162e+10  5.7123594183150124e+10  2.4172560728519379e+10  2.4721432871036362e+10  1.7829050078695900e+10  5.8468588182119354e+10  5.4327294163116112e+10  2.7742092831936451e+10  2.8617353440850700e+10  2.8788653838401104e+10  2.7969588740576241e+10  2.3950336856846600e+10  2.4595735208870968e+10  2.8636233788813698e+10  2.4615351405439198e+10  2.4697427125606339e+10  2.4527063818475964e+10  2.5402254194297821e+10  2.4587134116360161e+10  2.4384884747546722e+10  2.8128544676892658e+10  5.7544602468247177e+10  2.4104887567784325e+10  2.4011060715800781e+10  1.7938349629756275e+10  3.5289335300533615e+10  3.4433535112077484e+10  5.8021831393884689e+10  1.8390885343338432e+10  1.8432297285873989e+10  2.3552964265713085e+10  3.8361932820150772e+10  2.8705769672048450e+10  2.8969828689391029e+10  5.9013825091392258e+10  5.8817382595250122e+10  5.8258295217096329e+10  5.8662770796969193e+10  5.8968328396582756e+10  1.7677747973479702e+10  5.8774299641798843e+10  5.8632263190494171e+10  1.7606739588714275e+10  1.7662520667440502e+10  1.7537352545876102e+10  1.8398424031032810e+10  3.2501379483560047e+10  3.5297600043562714e+10  3.5330221442267982e+10  3.5348396632342667e+10  3.2528284325119938e+10  3.5144258857401405e+10  3.5595420474852203e+10  2.4920414446379250e+10  2.3540521862471107e+10  2.3120555285791790e+10  3.5385192489419212e+10  1.7520589273273926e+10  3.1946962432483677e+10  3.5665216253935692e+10  3.6465589448662598e+10  2.7936967656931683e+10  3.1915194435782902e+10  1.7748057959666206e+10  2.2198860492358906e+10  3.5644655491282784e+10  1.8622478278790459e+10  3.5958824996781960e+10  5.4390742335272667e+10  5.4615781694860222e+10  5.4277104180270699e+10  2.7694220686085667e+10  1.7450525801639950e+10  5.1766760110275597e+10  3.6487852357199974e+10  2.2188301589090862e+10  4.0399253382556160e+10  3.5878095019893600e+10  2.8913487010844398e+10  3.5841260871251434e+10  3.5562038879658318e+10  1.7561801560271664e+10  2.8656816412794060e+10  2.3595632220360321e+10  1.7447185103574947e+10  1.7350999863259117e+10  6.1734428758279343e+10  6.1636587585898293e+10  1.7210875019303661e+10  1.7472463400156330e+10  2.3350349107230915e+10  2.9207992619945869e+10  4.0075024294108124e+10  1.7008453559424236e+10  2.2167125309350578e+10  2.3141629126083275e+10  6.1598627411320084e+10  2.1201360981358833e+10  6.3731554185863983e+10  6.3251652960669052e+10  2.1475568854820549e+10  1.7254726169318192e+10  1.7356370238718330e+10  2.2704137322560505e+10  2.2779868766239105e+10  1.7147071628280893e+10  3.4353182634912205e+10  1.7063858224381243e+10  1.7314232134110619e+10  1.7334440973546364e+10  1.7101566302718746e+10  6.5204161890015884e+10  1.7135521714290371e+10  2.7082944042496822e+10  2.2426015556112576e+10  1.7007447372778204e+10  1.7080209182932127e+10  1.6980879930746614e+10  1.7051170185442907e+10  1.7151651326587523e+10  1.7003602444047039e+10  2.7333050428430836e+10  1.7097528448796576e+10  2.1014767596453957e+10  2.4174711995735344e+10  2.2580478061640488e+10  2.3972489645132847e+10  4.2166530069678322e+10  3.7295669335670181e+10  3.7461087509504364e+10  3.4518947643780853e+10  1.7031413338858372e+10  1.7973102713474480e+10  1.7001046240272247e+10  1.7063278139616688e+10  1.7052841493400341e+10  2.3174130405749222e+10  2.3103128601728390e+10  2.3071790910599262e+10  2.0681207498448242e+10  2.1676086537907932e+10  2.0726806324934929e+10  6.5163446958653442e+10  2.3137638517584881e+10  6.7013015619891525e+10  1.6865473754888884e+10  6.2011865823282349e+10  6.5755334878489334e+10  6.6201288323613953e+10  6.5899223092244743e+10  6.6815181391048004e+10  6.6269063282743469e+10  4.2295853536033989e+10  6.5722586495586830e+10  3.5905592802680679e+10  3.5922224940479050e+10  4.0975745807617950e+10  2.3942796728930962e+10  2.0860688197308876e+10  6.6322925713204346e+10  2.0898096763763195e+10  1.6816741746543430e+10  1.6814762932335018e+10  6.4747773346072800e+10  2.1450847206785011e+10  2.7661882811858597e+10  1.6729998113278206e+10  2.9181907759241123e+10  2.1311263089768700e+10  4.5825052908031586e+10  4.5838760920194641e+10  2.0857220610125645e+10  4.4567144997167992e+10  3.5606143875631264e+10  1.6797935382902836e+10  1.6855541840919844e+10  2.0783350060059643e+10  2.1156551868018051e+10  2.0785127743893509e+10  2.6523251986964104e+10  1.6662022301677923e+10  4.4677935111667900e+10  3.6649969290197067e+10  1.9827092054135162e+10  1.9496080851030598e+10  2.0976751135286736e+10  1.9976379035667358e+10  2.1162549531332020e+10  2.5447138129154816e+10  2.3618457393453861e+10  2.4846302099262070e+10  1.8753614267329094e+10  1.6675923644744329e+10  2.1361456253714767e+10  6.8088148578775932e+10  2.0458473481980637e+10  4.4843531630357834e+10  2.8949555862491398e+10  3.6838236345572884e+10  1.6729789711278891e+10  2.0916073097479725e+10  2.0904953418060383e+10  1.6897675712533524e+10  2.0096803101789787e+10  1.9993838045228497e+10  2.3097001564054581e+10  2.5038802775818996e+10  3.4767306381616959e+10  1.6695930518406075e+10  4.4974031091564438e+10  2.0167299642980076e+10  4.4182770234886429e+10  2.5755298145280972e+10  4.0954238065069160e+10  4.5196709834390121e+10  3.3111197017846760e+10  4.8947267325123489e+10  5.0389468327874710e+10  2.5263585947814461e+10  1.6658921443266169e+10  6.7754261806923584e+10  2.8744783707528015e+10  1.6542528173201315e+10  2.0636612920406147e+10  1.6645875448929106e+10  2.7982390722691288e+10  1.6669224288771944e+10  1.6585099857941811e+10  2.8817071614286316e+10  2.5555992273796051e+10  4.4814443658159393e+10  6.9253542420363998e+10  1.9164146098021305e+10  1.6707625091125515e+10  2.0721905966484543e+10  4.8059619766300056e+10  1.9027351818121284e+10  5.0593233941109169e+10  1.6708078257780907e+10  2.4030052658718727e+10  2.0668516804415218e+10  1.6737574856534918e+10  2.0336308506443951e+10  3.1083068374612076e+10  2.4419059161062092e+10  4.5039966643515312e+10  1.9755891629941200e+10  2.7251880343520828e+10  1.7182420051305744e+10  4.3731145346492455e+10  2.0027746039587849e+10  3.0263647837425240e+10  2.8906852504822006e+10  2.2183204703076748e+10  2.2548402528490841e+10  1.9542770643892998e+10  2.8770658492989037e+10  3.1395026016950462e+10  1.9065133626135921e+10  3.2822300325156021e+10  4.2266991636765457e+10  2.2600872417460938e+10  2.9001367312304020e+10  5.0073633987143883e+10  3.5254209494720268e+10  2.9341887970899593e+10  3.0370543735889694e+10  1.9303492760920227e+10  2.9782558949766376e+10  2.7000967256360191e+10  1.8744031445436211e+10  2.3544230308881565e+10  7.1865156102588287e+10  6.9350021312573898e+10  7.0432762249071289e+10  1.9494192467092735e+10  7.1719331114658615e+10  3.3719370706166264e+10  1.9056535509469669e+10  6.8651065958469795e+10  2.7822472613804882e+10  1.8875479835481213e+10  1.6519488101175709e+10  1.8900375438122940e+10  2.5557208873082081e+10  1.6543626479485664e+10  2.3847687754222076e+10  7.1615241519779434e+10  4.1106199297683113e+10  2.4449638403981773e+10  3.0206966079146595e+10  4.3805144002795860e+10  1.6406066226063540e+10  4.2868447755586014e+10  5.2271731604876312e+10  7.1764809715882751e+10  2.9418082918575481e+10  1.6511104075153389e+10  1.7287799949202610e+10  1.6436125841444994e+10  1.6479993675531118e+10  3.2786431876945377e+10  1.6627365111794596e+10  1.6512276653557634e+10  2.4465989963611092e+10  2.5603318487062416e+10  2.2601087639379894e+10  1.9799899445037361e+10  3.3953362111417503e+10  7.1520507746475586e+10  1.6760798718995941e+10  7.0803128839984924e+10  2.9614189228332653e+10  1.7434879590865997e+10  1.6462286803908621e+10  5.2085346252593727e+10  3.4938796994226082e+10  3.2731246078066841e+10  5.0925747409502022e+10  1.9085238182729328e+10  2.9061410650725452e+10  3.4868819911319588e+10  1.8953770175486378e+10  1.6546689140359812e+10  1.7736054756878998e+10  1.6974129587287186e+10  7.1173298157524719e+10  2.7833359960766663e+10  7.2428109725424255e+10  1.7731969937344082e+10  3.3882640944015190e+10  1.8214272396695225e+10  1.6331406981057360e+10  1.6575496663088560e+10  1.6402051115021517e+10  2.0183837410275284e+10  2.0254417841479683e+10  4.3882166717609558e+10  4.4366726140547211e+10  3.4342111354287399e+10  2.5018374923258205e+10  1.6340307526484152e+10  1.6377890659371523e+10  1.6359816962407953e+10  1.6297250979577991e+10  7.0515397164856781e+10  2.5733647247590248e+10  3.3556379235213417e+10  1.6266487846585985e+10  1.6450011416247961e+10  1.6436878764536976e+10  1.6400460754165588e+10  3.4531359668470398e+10  2.0531067450827530e+10  3.7480301359772194e+10  1.6433086917884428e+10  1.6418286787864773e+10  3.1628668224515560e+10  2.5667566354582474e+10  2.4635960919671024e+10  2.9593047415878769e+10  7.2902907542696548e+10  7.2715395630838211e+10  3.8152338871490204e+10  5.1136615205103271e+10  1.9148748485685284e+10  4.9291457832605370e+10  5.8155086807965858e+10  2.8200066692983944e+10  7.2749055141903961e+10  3.3404175427459068e+10  1.9871716659798931e+10  1.8621628572059341e+10  3.3616345843787472e+10  1.9767401914049877e+10  4.6128426777032265e+10  1.8953610961224361e+10  1.8626319557785503e+10  2.4845867953681976e+10  3.2146317710021267e+10  4.5529993657887833e+10  1.9890122441771091e+10  3.7572521